 Gaussian 16, Revision C.01,
 Gaussian 16:  AS64L-G16RevC.01  3-Jul-2019

 -------------------------
 # opt freq M062X/def2tzvp
 -------------------------

 converted from /home/svss/projects/Project-Philicity/GS/hydrocarbon/se
 t-1/GS/mol_20_hc/mol_20_hc_cregen_best.xyz
 ----------------------------------------------------------------------
 Symbolic Z-matrix:
 Charge =  0 Multiplicity = 1

 SCF Done:  E(RM062X) =  -254.911382919     A.U. after   13 cycles
 SCF Done:  E(RM062X) =  -254.911466466     A.U. after   12 cycles
 SCF Done:  E(RM062X) =  -254.912472520     A.U. after   12 cycles
 SCF Done:  E(RM062X) =  -254.912473218     A.U. after    7 cycles
 Optimization completed.
    -- Stationary point found.
 Normal termination of Gaussian 16 at Mon Jun 20 17:53:17 2022.

 --------------------------------------------------------------------
 #N Geom=AllCheck Guess=TCheck SCRF=Check GenChk RM062X/def2TZVP Freq
 --------------------------------------------------------------------

 ----------------------------------------------------------------------
 converted from /home/svss/projects/Project-Philicity/GS/hydrocarbon/se
 t-1/GS/mol_20_hc/mol_20_hc_cregen_best.xyz
 ----------------------------------------------------------------------
 Charge =  0 Multiplicity = 1

                         Standard orientation:
 ---------------------------------------------------------------------
 Center     Atomic      Atomic             Coordinates (Angstroms)
 Number     Number       Type             X           Y           Z
 ---------------------------------------------------------------------
      1          9           0       -1.077912   -0.276376    0.024982
      2          7           0       -0.000004    0.556403   -0.166420
      3          9           0        1.077915   -0.276374    0.024981
      4          1           0        0.000001    1.079932    0.715279
 ---------------------------------------------------------------------

 SCF Done:  E(RM062X) =  -254.912473218     A.U. after    1 cycles

 The electronic state is 1-A.
 Alpha  occ. eigenvalues --  -25.29067 -25.29067 -14.94046  -1.45181  -1.36224
 Alpha  occ. eigenvalues --   -0.95062  -0.69312  -0.66815  -0.63054  -0.55265
 Alpha  occ. eigenvalues --   -0.52503  -0.52054  -0.39124
 Alpha virt. eigenvalues --    0.05334   0.09546   0.10517   0.31093   0.35473
 Alpha virt. eigenvalues --    0.36020   0.41283   0.48287   0.55644   0.58241
 Alpha virt. eigenvalues --    0.59932   0.61608   0.67593   0.73620   0.95482

 Mulliken charges:
               1
     1  F   -0.154628
     2  N    0.063548
     3  F   -0.154632
     4  H    0.245712
 Sum of Mulliken charges =  -0.00000

 Dipole moment (field-independent basis, Debye):
    X=             -0.0000    Y=              1.4161    Z=              1.3760  Tot=              1.9745
 Quadrupole moment (field-independent basis, Debye-Ang):
   XX=            -17.1564   YY=            -14.5635   ZZ=            -15.3535
   XY=              0.0000   XZ=              0.0000   YZ=              1.8250

  Exact polarizability:      16.416      -0.000      12.966       0.000       0.891      10.245
 Approx polarizability:      18.632      -0.000      14.427       0.000       0.919      11.037

                      1                      2                      3
                      A                      A                      A
 Frequencies --    539.8817              1011.1299              1081.9149
 Red. masses --     15.2740                15.2595                13.4633
 Frc consts  --      2.6230                 9.1919                 9.2852
 IR Inten    --      2.7452               170.9865                33.0556

                      4                      5                      6
                      A                      A                      A
 Frequencies --   1355.2498              1506.9296              3394.5329
 Red. masses --      1.2144                 1.0643                 1.0774
 Frc consts  --      1.3141                 1.4240                 7.3146
 IR Inten    --     51.0577                16.9897                 2.9513

 - Thermochemistry -
 -------------------
 Temperature   298.150 Kelvin.  Pressure   1.00000 Atm.
 Atom     1 has atomic number  9 and mass  18.99840

 Molecular mass:    53.00771 amu.
 Principal axes and moments of inertia in atomic units:
                           1         2         3
     Eigenvalues --    33.14722 160.63433 187.82648
           X            1.00000   0.00000   0.00000
           Y           -0.00000   0.99439   0.10574
           Z           -0.00000  -0.10574   0.99439
 This molecule is an asymmetric top.
 Rotational symmetry number  1.
 Rotational temperatures (Kelvin)      2.61301     0.53920     0.46114
 Rotational constants (GHZ):          54.44623    11.23509     9.60856
 Zero-point vibrational energy      53171.8 (Joules/Mol)
                                   12.70838 (Kcal/Mol)
 Warning -- explicit consideration of   1 degrees of freedom as
           vibrations may cause significant error
 Vibrational temperatures:    776.77  1454.79  1556.63  1949.90  2168.14
          (Kelvin)           4883.98

 Zero-point correction=                           0.020252 (Hartree/Particle)
 Thermal correction to Energy=                    0.023357
 Thermal correction to Enthalpy=                  0.024301
 Thermal correction to Gibbs Free Energy=        -0.004260
 Sum of electronic and zero-point Energies=           -254.892221
 Sum of electronic and thermal Energies=              -254.889117
 Sum of electronic and thermal Enthalpies=            -254.888172
 Sum of electronic and thermal Free Energies=         -254.916733

                     E (Thermal)             CV                S
                      KCal/Mol        Cal/Mol-Kelvin    Cal/Mol-Kelvin
 Total                   14.657              7.981             60.111
 Electronic               0.000              0.000              0.000
 Translational            0.889              2.981             37.826
 Rotational               0.889              2.981             21.530
 Vibrational             12.879              2.019              0.755
 Vibration     1          0.895              1.162              0.566

 Optimization completed.
    -- Stationary point found.
 Normal termination of Gaussian 16 at Mon Jun 20 17:53:29 2022.
