 Gaussian 16, Revision C.01,
 Gaussian 16:  AS64L-G16RevC.01  3-Jul-2019

 -------------------------
 # opt freq M062X/def2tzvp
 -------------------------

 converted from /home/svss/projects/Project-Philicity/GS/hydrocarbon/se
 t-1/GS/mol_21_hc/mol_21_hc_cregen_best.xyz
 ----------------------------------------------------------------------
 Symbolic Z-matrix:
 Charge =  0 Multiplicity = 1

 SCF Done:  E(RM062X) =  -324.474207353     A.U. after   14 cycles
 SCF Done:  E(RM062X) =  -324.474570846     A.U. after   11 cycles
 SCF Done:  E(RM062X) =  -324.474581643     A.U. after    9 cycles
 SCF Done:  E(RM062X) =  -324.474579829     A.U. after    9 cycles
 SCF Done:  E(RM062X) =  -324.474580895     A.U. after    9 cycles
 SCF Done:  E(RM062X) =  -324.474582144     A.U. after    8 cycles
 SCF Done:  E(RM062X) =  -324.474582218     A.U. after    8 cycles
 Optimization completed.
    -- Stationary point found.
 Normal termination of Gaussian 16 at Mon Jun 20 18:00:09 2022.

 --------------------------------------------------------------------
 #N Geom=AllCheck Guess=TCheck SCRF=Check GenChk RM062X/def2TZVP Freq
 --------------------------------------------------------------------

 ----------------------------------------------------------------------
 converted from /home/svss/projects/Project-Philicity/GS/hydrocarbon/se
 t-1/GS/mol_21_hc/mol_21_hc_cregen_best.xyz
 ----------------------------------------------------------------------
 Charge =  0 Multiplicity = 1

                         Standard orientation:
 ---------------------------------------------------------------------
 Center     Atomic      Atomic             Coordinates (Angstroms)
 Number     Number       Type             X           Y           Z
 ---------------------------------------------------------------------
      1          7           0       -3.185577   -0.000100   -0.000234
      2          6           0       -2.038027    0.000186    0.000400
      3          6           0       -0.601410    0.000083    0.000164
      4          6           0        0.089947   -1.210107    0.000059
      5          6           0        1.474885   -1.204227   -0.000107
      6          6           0        2.166635   -0.000096   -0.000183
      7          6           0        1.475039    1.204124   -0.000084
      8          6           0        0.090103    1.210185    0.000082
      9          1           0       -0.461825   -2.140182    0.000124
     10          1           0        2.015182   -2.141312   -0.000180
     11          1           0        3.248734   -0.000165   -0.000315
     12          1           0        2.015457    2.141140   -0.000138
     13          1           0       -0.461552    2.140330    0.000166
 ---------------------------------------------------------------------

 SCF Done:  E(RM062X) =  -324.474582218     A.U. after    1 cycles

 The electronic state is 1-A.
 Alpha  occ. eigenvalues --  -14.75384 -10.59665 -10.57791 -10.57454 -10.57451
 Alpha  occ. eigenvalues --  -10.56989 -10.56782 -10.56766  -1.02553  -0.99196
 Alpha  occ. eigenvalues --   -0.88824  -0.87518  -0.74294  -0.72066  -0.64964
 Alpha  occ. eigenvalues --   -0.58449  -0.55532  -0.53265  -0.51827  -0.48774
 Alpha  occ. eigenvalues --   -0.45669  -0.44011  -0.43435  -0.42492  -0.40506
 Alpha  occ. eigenvalues --   -0.33826  -0.32882
 Alpha virt. eigenvalues --   -0.02751  -0.00377   0.06226   0.07793   0.09448
 Alpha virt. eigenvalues --    0.09503   0.11500   0.11936   0.13571   0.14316
 Alpha virt. eigenvalues --    0.16415   0.17349   0.20473   0.22483   0.22671

 Mulliken charges:
               1
     1  N    0.031340
     2  C   -0.266198
     3  C    0.207507
     4  C   -0.190028
     5  C   -0.130934
     6  C   -0.134956
     7  C   -0.130942
     8  C   -0.190025
     9  H    0.170496
    10  H    0.154556
    11  H    0.154134
    12  H    0.154556
    13  H    0.170494
 Sum of Mulliken charges =  -0.00000

 Dipole moment (field-independent basis, Debye):
    X=              4.6594    Y=              0.0002    Z=              0.0006  Tot=              4.6594
 Quadrupole moment (field-independent basis, Debye-Ang):
   XX=            -56.0961   YY=            -39.3919   ZZ=            -49.1466
   XY=             -0.0007   XZ=             -0.0028   YZ=              0.0001

  Exact polarizability:     115.475       0.002      81.468      -0.000       0.000      44.558
 Approx polarizability:     146.422       0.005     110.003       0.005       0.000      60.069

                      1                      2                      3
                      A                      A                      A
 Frequencies --    147.2977               167.2884               392.3021
 Red. masses --      5.7852                 6.5472                 4.6339
 Frc consts  --      0.0740                 0.1080                 0.4202
 IR Inten    --      1.7834                 4.7647                 0.5140

                      4                      5                      6
                      A                      A                      A
 Frequencies --    409.0742               465.7677               575.0295
 Red. masses --      2.8760                 8.4383                 7.8281
 Frc consts  --      0.2836                 1.0786                 1.5251
 IR Inten    --      0.0000                 0.0010                 0.3300

                      7                      8                      9
                      A                      A                      A
 Frequencies --    575.1990               639.9795               713.6131
 Red. masses --      4.0082                 6.8242                 1.8929
 Frc consts  --      0.7813                 1.6468                 0.5679
 IR Inten    --     19.6429                 0.2140                36.4592

                     10                     11                     12
                      A                      A                      A
 Frequencies --    777.8633               790.6025               875.4082
 Red. masses --      6.0818                 1.7593                 1.2469
 Frc consts  --      2.1681                 0.6479                 0.5630
 IR Inten    --      2.0872                41.0676                 0.0000

                     13                     14                     15
                      A                      A                      A
 Frequencies --    964.2309              1003.8629              1023.6586
 Red. masses --      1.4044                 1.3733                 6.1903
 Frc consts  --      0.7693                 0.8154                 3.8218
 IR Inten    --      2.9669                 0.0000                 0.5499

                     16                     17                     18
                      A                      A                      A
 Frequencies --   1029.5387              1061.5892              1113.5484
 Red. masses --      1.3207                 2.1572                 1.4952
 Frc consts  --      0.8248                 1.4323                 1.0924
 IR Inten    --      0.0647                 3.2618                 3.6724

                     19                     20                     21
                      A                      A                      A
 Frequencies --   1183.1025              1202.9220              1231.3455
 Red. masses --      1.1600                 1.1486                 3.4107
 Frc consts  --      0.9566                 0.9793                 3.0468
 IR Inten    --      0.5071                 0.8129                 0.2719

                     22                     23                     24
                      A                      A                      A
 Frequencies --   1314.0457              1354.7239              1493.1063
 Red. masses --      4.5514                 1.4000                 2.3048
 Frc consts  --      4.6303                 1.5139                 3.0274
 IR Inten    --      2.3737                 0.7288                 7.7157

                     25                     26                     27
                      A                      A                      A
 Frequencies --   1539.3421              1652.2118              1677.6336
 Red. masses --      2.3558                 5.9190                 5.9208
 Frc consts  --      3.2890                 9.5199                 9.8180
 IR Inten    --     10.3341                 0.7509                 0.4311

                     28                     29                     30
                      A                      A                      A
 Frequencies --   2408.1100              3211.0469              3222.0470
 Red. masses --     12.6870                 1.0865                 1.0891
 Frc consts  --     43.3471                 6.6004                 6.6619
 IR Inten    --     29.3197                 0.1429                 1.8464

                     31                     32                     33
                      A                      A                      A
 Frequencies --   3227.5808              3236.1764              3239.5307
 Red. masses --      1.0927                 1.0958                 1.0987
 Frc consts  --      6.7070                 6.7615                 6.7933
 IR Inten    --      3.3561                 2.4543                 2.2298

 - Thermochemistry -
 -------------------
 Temperature   298.150 Kelvin.  Pressure   1.00000 Atm.
 Atom     1 has atomic number  7 and mass  14.00307

 Molecular mass:   103.04220 amu.
 Principal axes and moments of inertia in atomic units:
                           1         2         3
     Eigenvalues --   315.761951156.629531472.39145
           X            1.00000   0.00000   0.00003
           Y           -0.00000   1.00000  -0.00001
           Z           -0.00003   0.00001   1.00000
 This molecule is an asymmetric top.
 Rotational symmetry number  1.
 Rotational temperatures (Kelvin)      0.27430     0.07488     0.05883
 Rotational constants (GHZ):           5.71551     1.56035     1.22572
 Zero-point vibrational energy     262692.6 (Joules/Mol)
                                   62.78505 (Kcal/Mol)
 Warning -- explicit consideration of   7 degrees of freedom as
           vibrations may cause significant error
 Vibrational temperatures:    211.93   240.69   564.44   588.57   670.14
          (Kelvin)            827.34   827.58   920.79  1026.73  1119.17
                             1137.50  1259.52  1387.31  1444.33  1472.82
                             1481.28  1527.39  1602.15  1702.22  1730.74
                             1771.63  1890.62  1949.15  2148.25  2214.77
                             2377.16  2413.74  3464.73  4619.98  4635.81
                             4643.77  4656.14  4660.96

 Zero-point correction=                           0.100054 (Hartree/Particle)
 Thermal correction to Energy=                    0.106118
 Thermal correction to Enthalpy=                  0.107062
 Thermal correction to Gibbs Free Energy=         0.069816
 Sum of electronic and zero-point Energies=           -324.374528
 Sum of electronic and thermal Energies=              -324.368464
 Sum of electronic and thermal Enthalpies=            -324.367520
 Sum of electronic and thermal Free Energies=         -324.404766

                     E (Thermal)             CV                S
                      KCal/Mol        Cal/Mol-Kelvin    Cal/Mol-Kelvin
 Total                   66.590             22.993             78.391
 Electronic               0.000              0.000              0.000
 Translational            0.889              2.981             39.807
 Rotational               0.889              2.981             27.777
 Vibrational             64.813             17.031             10.807
 Vibration     1          0.617              1.906              2.707
 Vibration     2          0.624              1.883              2.466
 Vibration     3          0.760              1.487              0.991
 Vibration     4          0.773              1.451              0.930
 Vibration     5          0.823              1.326              0.750
 Vibration     6          0.931              1.085              0.495
 Vibration     7          0.932              1.085              0.494

 Optimization completed.
    -- Stationary point found.
 Normal termination of Gaussian 16 at Mon Jun 20 18:05:34 2022.
