 Gaussian 16, Revision C.01,
 Gaussian 16:  AS64L-G16RevC.01  3-Jul-2019

 -------------------------
 # opt freq M062X/def2tzvp
 -------------------------

 converted from /home/svss/projects/Project-Philicity/GS/hydrocarbon/se
 t-1/GS/mol_15_hc/mol_15_hc_cregen_best.xyz
 ----------------------------------------------------------------------
 Symbolic Z-matrix:
 Charge =  0 Multiplicity = 1

 SCF Done:  E(RM062X) =  -1419.28826723     A.U. after   13 cycles
 SCF Done:  E(RM062X) =  -1419.28854102     A.U. after   12 cycles
 SCF Done:  E(RM062X) =  -1419.28855146     A.U. after    8 cycles
 Optimization completed.
    -- Stationary point found.
 Normal termination of Gaussian 16 at Mon Jun 20 17:39:31 2022.

 --------------------------------------------------------------------
 #N Geom=AllCheck Guess=TCheck SCRF=Check GenChk RM062X/def2TZVP Freq
 --------------------------------------------------------------------

 ----------------------------------------------------------------------
 converted from /home/svss/projects/Project-Philicity/GS/hydrocarbon/se
 t-1/GS/mol_15_hc/mol_15_hc_cregen_best.xyz
 ----------------------------------------------------------------------
 Charge =  0 Multiplicity = 1

                         Standard orientation:
 ---------------------------------------------------------------------
 Center     Atomic      Atomic             Coordinates (Angstroms)
 Number     Number       Type             X           Y           Z
 ---------------------------------------------------------------------
      1         17           0        1.559168    0.615001   -0.084088
      2          6           0        0.000051    0.000040    0.457676
      3         17           0       -0.246932   -1.657664   -0.083981
      4         17           0       -1.312249    1.042653   -0.084017
      5          1           0       -0.000089   -0.000071    1.539412
 ---------------------------------------------------------------------

 SCF Done:  E(RM062X) =  -1419.28855146     A.U. after    1 cycles

 The electronic state is 1-A.
 Alpha  occ. eigenvalues -- -102.66834-102.66832-102.66831 -10.72518  -9.83143
 Alpha  occ. eigenvalues --   -9.83141  -9.83140  -7.55356  -7.55354  -7.55353
 Alpha  occ. eigenvalues --   -7.54787  -7.54785  -7.54785  -7.54779  -7.54777
 Alpha  occ. eigenvalues --   -7.54777  -1.05396  -0.94173  -0.94171  -0.74016
 Alpha  occ. eigenvalues --   -0.58586  -0.54508  -0.54507  -0.42591  -0.42590
 Alpha  occ. eigenvalues --   -0.39419  -0.39418  -0.39007  -0.37638
 Alpha virt. eigenvalues --    0.01058   0.05638   0.05639   0.07684   0.18191
 Alpha virt. eigenvalues --    0.20495   0.20496   0.27967   0.31013   0.31013
 Alpha virt. eigenvalues --    0.34526   0.35483   0.35484   0.37413   0.37414

 Mulliken charges:
               1
     1  Cl  -0.039860
     2  C   -0.060922
     3  Cl  -0.039836
     4  Cl  -0.039895
     5  H    0.180513
 Sum of Mulliken charges =  -0.00000

 Dipole moment (field-independent basis, Debye):
    X=              0.0002    Y=             -0.0000    Z=              1.1233  Tot=              1.1233
 Quadrupole moment (field-independent basis, Debye-Ang):
   XX=            -44.1053   YY=            -44.1058   ZZ=            -41.9284
   XY=              0.0002   XZ=             -0.0001   YZ=              0.0000

  Exact polarizability:      53.592      -0.001      53.598      -0.010      -0.007      35.178
 Approx polarizability:      67.710       0.000      67.706      -0.001      -0.000      49.523

                      1                      2                      3
                      A                      A                      A
 Frequencies --    263.2988               263.6615               372.2750
 Red. masses --     25.7075                25.6779                19.8921
 Frc consts  --      1.0500                 1.0517                 1.6243
 IR Inten    --      0.0831                 0.0893                 0.2980

                      4                      5                      6
                      A                      A                      A
 Frequencies --    688.0819               790.4470               795.5034
 Red. masses --      8.2459                 9.2527                 9.1908
 Frc consts  --      2.3002                 3.4061                 3.4268
 IR Inten    --      4.8555               151.4618               150.9309

                      7                      8                      9
                      A                      A                      A
 Frequencies --   1251.0954              1251.3032              3202.0558
 Red. masses --      1.0788                 1.0794                 1.0884
 Frc consts  --      0.9948                 0.9958                 6.5748
 IR Inten    --     22.2817                22.6249                 0.8819

 - Thermochemistry -
 -------------------
 Temperature   298.150 Kelvin.  Pressure   1.00000 Atm.
 Atom     1 has atomic number 17 and mass  34.96885

 Molecular mass:   117.91438 amu.
 Principal axes and moments of inertia in atomic units:
                           1         2         3
     Eigenvalues --   546.18313 546.280011052.35254
           X            1.00000   0.00000   0.00003
           Y           -0.00000   1.00000   0.00002
           Z           -0.00003  -0.00002   1.00000
 This molecule is an asymmetric top.
 Rotational symmetry number  1.
 Warning -- assumption of classical behavior for rotation
           may cause significant error
 Rotational temperatures (Kelvin)      0.15858     0.15855     0.08231
 Rotational constants (GHZ):           3.30428     3.30369     1.71496
 Zero-point vibrational energy      53100.6 (Joules/Mol)
                                   12.69134 (Kcal/Mol)
 Warning -- explicit consideration of   3 degrees of freedom as
           vibrations may cause significant error
 Vibrational temperatures:    378.83   379.35   535.62   990.00  1137.28
          (Kelvin)           1144.55  1800.05  1800.35  4607.04

 Zero-point correction=                           0.020225 (Hartree/Particle)
 Thermal correction to Energy=                    0.024636
 Thermal correction to Enthalpy=                  0.025580
 Thermal correction to Gibbs Free Energy=        -0.008920
 Sum of electronic and zero-point Energies=          -1419.268327
 Sum of electronic and thermal Energies=             -1419.263915
 Sum of electronic and thermal Enthalpies=           -1419.262971
 Sum of electronic and thermal Free Energies=        -1419.297472

                     E (Thermal)             CV                S
                      KCal/Mol        Cal/Mol-Kelvin    Cal/Mol-Kelvin
 Total                   15.459             13.495             72.613
 Electronic               0.000              0.000              0.000
 Translational            0.889              2.981             40.209
 Rotational               0.889              2.981             27.243
 Vibrational             13.682              7.533              5.161
 Vibration     1          0.670              1.740              1.640
 Vibration     2          0.670              1.740              1.637
 Vibration     3          0.744              1.529              1.070

 Optimization completed.
    -- Stationary point found.
 Normal termination of Gaussian 16 at Mon Jun 20 17:40:01 2022.
