 Gaussian 16, Revision C.01,
 Gaussian 16:  AS64L-G16RevC.01  3-Jul-2019

 -------------------------
 # opt freq M062X/def2tzvp
 -------------------------

 converted from /home/svss/projects/Project-Philicity/GS/hydrocarbon/se
 t-1/GS/mol_13_hc/mol_13_hc_cregen_best.xyz
 ----------------------------------------------------------------------
 Symbolic Z-matrix:
 Charge =  0 Multiplicity = 1

 SCF Done:  E(RM062X) =  -232.224514702     A.U. after   11 cycles
 SCF Done:  E(RM062X) =  -232.224618089     A.U. after    7 cycles
 SCF Done:  E(RM062X) =  -232.224618081     A.U. after    6 cycles
 Optimization completed.
    -- Stationary point found.
 Normal termination of Gaussian 16 at Mon Jun 20 17:21:43 2022.

 --------------------------------------------------------------------
 #N Geom=AllCheck Guess=TCheck SCRF=Check GenChk RM062X/def2TZVP Freq
 --------------------------------------------------------------------

 ----------------------------------------------------------------------
 converted from /home/svss/projects/Project-Philicity/GS/hydrocarbon/se
 t-1/GS/mol_13_hc/mol_13_hc_cregen_best.xyz
 ----------------------------------------------------------------------
 Charge =  0 Multiplicity = 1

                         Standard orientation:
 ---------------------------------------------------------------------
 Center     Atomic      Atomic             Coordinates (Angstroms)
 Number     Number       Type             X           Y           Z
 ---------------------------------------------------------------------
      1          6           0       -0.734027    1.178558    0.000021
      2          6           0        0.653688    1.224943    0.000006
      3          6           0        1.387700    0.046400   -0.000019
      4          6           0        0.734026   -1.178559   -0.000026
      5          6           0       -0.653687   -1.224944   -0.000004
      6          6           0       -1.387700   -0.046399    0.000027
      7          1           0       -1.306296    2.097349    0.000026
      8          1           0        1.163183    2.179979    0.000005
      9          1           0        2.469539    0.082559   -0.000036
     10          1           0        1.306297   -2.097348   -0.000044
     11          1           0       -1.163186   -2.179978   -0.000012
     12          1           0       -2.469539   -0.082561    0.000035
 ---------------------------------------------------------------------

 SCF Done:  E(RM062X) =  -232.224618081     A.U. after    1 cycles

 The electronic state is 1-A.
 Alpha  occ. eigenvalues --  -10.54122 -10.54086 -10.54086 -10.54004 -10.54004
 Alpha  occ. eigenvalues --  -10.53964  -0.96103  -0.84341  -0.84339  -0.68608
 Alpha  occ. eigenvalues --   -0.68608  -0.60162  -0.53285  -0.51387  -0.48847
 Alpha  occ. eigenvalues --   -0.48845  -0.44108  -0.40240  -0.40239  -0.30896
 Alpha  occ. eigenvalues --   -0.30894
 Alpha virt. eigenvalues --    0.02331   0.02332   0.08161   0.10999   0.10999
 Alpha virt. eigenvalues --    0.13612   0.13613   0.15414   0.17967   0.19322
 Alpha virt. eigenvalues --    0.24089   0.24450   0.24755   0.24756   0.26557

 Mulliken charges:
               1
     1  C   -0.141930
     2  C   -0.141978
     3  C   -0.141950
     4  C   -0.141930
     5  C   -0.141978
     6  C   -0.141950
     7  H    0.141953
     8  H    0.141952
     9  H    0.141954
    10  H    0.141953
    11  H    0.141952
    12  H    0.141954
 Sum of Mulliken charges =  -0.00000

 Dipole moment (field-independent basis, Debye):
    X=             -0.0000    Y=              0.0000    Z=             -0.0000  Tot=              0.0000
 Quadrupole moment (field-independent basis, Debye-Ang):
   XX=            -31.7408   YY=            -31.7409   ZZ=            -39.9901
   XY=             -0.0003   XZ=             -0.0001   YZ=              0.0001

  Exact polarizability:      76.529       0.013      76.637      -0.001       0.000      38.536
 Approx polarizability:     100.780      -0.001     100.779      -0.001       0.001      51.337

                      1                      2                      3
                      A                      A                      A
 Frequencies --    411.9906               412.4121               619.9605
 Red. masses --      2.8680                 2.8748                 6.0367
 Frc consts  --      0.2868                 0.2881                 1.3670
 IR Inten    --      0.0000                 0.0006                 0.0000

                      4                      5                      6
                      A                      A                      A
 Frequencies --    620.0900               695.6143               729.4384
 Red. masses --      6.0377                 1.0848                 3.5136
 Frc consts  --      1.3678                 0.3093                 1.1015
 IR Inten    --      0.0000               117.6813                 0.0000

                      7                      8                      9
                      A                      A                      A
 Frequencies --    879.2916               880.8931               996.4054
 Red. masses --      1.2480                 1.2480                 1.3758
 Frc consts  --      0.5685                 0.5706                 0.8048
 IR Inten    --      0.0000                 0.0000                 0.0000

                     10                     11                     12
                      A                      A                      A
 Frequencies --    997.7860              1020.7438              1027.3193
 Red. masses --      1.3740                 6.5300                 1.2643
 Frc consts  --      0.8060                 4.0086                 0.7861
 IR Inten    --      0.0020                 0.0002                 0.0000

                     13                     14                     15
                      A                      A                      A
 Frequencies --   1033.0616              1072.1808              1072.4644
 Red. masses --      6.0127                 1.6380                 1.6407
 Frc consts  --      3.7807                 1.1094                 1.1119
 IR Inten    --      0.0000                 5.1604                 5.1297

                     16                     17                     18
                      A                      A                      A
 Frequencies --   1166.0542              1200.0052              1200.7522
 Red. masses --      1.1413                 1.1214                 1.1220
 Frc consts  --      0.9143                 0.9514                 0.9531
 IR Inten    --      0.0000                 0.0000                 0.0000

                     19                     20                     21
                      A                      A                      A
 Frequencies --   1324.4776              1381.4200              1524.5916
 Red. masses --      5.0155                 1.2480                 2.1093
 Frc consts  --      5.1839                 1.4032                 2.8887
 IR Inten    --      0.0002                 0.0000                 7.9327

                     22                     23                     24
                      A                      A                      A
 Frequencies --   1525.0053              1668.6747              1668.8095
 Red. masses --      2.1052                 5.7061                 5.7219
 Frc consts  --      2.8846                 9.3612                 9.3886
 IR Inten    --      7.9537                 0.0000                 0.0000

                     25                     26                     27
                      A                      A                      A
 Frequencies --   3197.5975              3206.6155              3207.9620
 Red. masses --      1.0841                 1.0882                 1.0882
 Frc consts  --      6.5308                 6.5925                 6.5981
 IR Inten    --      0.0779                 0.0000                 0.0000

                     28                     29                     30
                      A                      A                      A
 Frequencies --   3221.5409              3222.7549              3231.5751
 Red. masses --      1.0955                 1.0955                 1.0998
 Frc consts  --      6.6987                 6.7036                 6.7669
 IR Inten    --     22.4512                21.4453                 0.0000

 - Thermochemistry -
 -------------------
 Temperature   298.150 Kelvin.  Pressure   1.00000 Atm.
 Atom     1 has atomic number  6 and mass  12.00000

 Molecular mass:    78.04695 amu.
 Principal axes and moments of inertia in atomic units:
                           1         2         3
     Eigenvalues --   313.74891 313.76426 627.51317
           X            0.99736  -0.07255   0.00002
           Y            0.07255   0.99736  -0.00001
           Z           -0.00001   0.00001   1.00000
 This molecule is an asymmetric top.
 Rotational symmetry number  1.
 Rotational temperatures (Kelvin)      0.27606     0.27605     0.13803
 Rotational constants (GHZ):           5.75218     5.75190     2.87602
 Zero-point vibrational energy     265675.6 (Joules/Mol)
                                   63.49799 (Kcal/Mol)
 Warning -- explicit consideration of   4 degrees of freedom as
           vibrations may cause significant error
 Vibrational temperatures:    592.76   593.37   891.98   892.17  1000.83
          (Kelvin)           1049.50  1265.10  1267.41  1433.61  1435.59
                             1468.62  1478.08  1486.35  1542.63  1543.04
                             1677.69  1726.54  1727.61  1905.63  1987.56
                             2193.55  2194.14  2400.85  2401.04  4600.63
                             4613.60  4615.54  4635.08  4636.83  4649.52

 Zero-point correction=                           0.101190 (Hartree/Particle)
 Thermal correction to Energy=                    0.105563
 Thermal correction to Enthalpy=                  0.106508
 Thermal correction to Gibbs Free Energy=         0.073747
 Sum of electronic and zero-point Energies=           -232.123428
 Sum of electronic and thermal Energies=              -232.119055
 Sum of electronic and thermal Enthalpies=            -232.118111
 Sum of electronic and thermal Free Energies=         -232.150871

                     E (Thermal)             CV                S
                      KCal/Mol        Cal/Mol-Kelvin    Cal/Mol-Kelvin
 Total                   66.242             17.017             68.951
 Electronic               0.000              0.000              0.000
 Translational            0.889              2.981             38.979
 Rotational               0.889              2.981             25.627
 Vibrational             64.465             11.056              4.345
 Vibration     1          0.776              1.444              0.920
 Vibration     2          0.776              1.443              0.918
 Vibration     3          0.980              0.990              0.417
 Vibration     4          0.980              0.989              0.416

 Optimization completed.
    -- Stationary point found.
 Normal termination of Gaussian 16 at Mon Jun 20 17:24:54 2022.
