 Gaussian 16, Revision C.01,
 Gaussian 16:  AS64L-G16RevC.01  3-Jul-2019

 -------------------------
 # opt freq M062X/def2tzvp
 -------------------------

 converted from /home/svss/projects/Project-Philicity/GS/hydrocarbon/se
 t-1/GS/mol_10_hc/mol_10_hc_cregen_best.xyz
 ----------------------------------------------------------------------
 Symbolic Z-matrix:
 Charge =  0 Multiplicity = 1

 SCF Done:  E(RM062X) =  -271.534851826     A.U. after   13 cycles
 SCF Done:  E(RM062X) =  -271.535017850     A.U. after   10 cycles
 SCF Done:  E(RM062X) =  -271.535022274     A.U. after    7 cycles
 Optimization completed.
    -- Stationary point found.
 Normal termination of Gaussian 16 at Mon Jun 20 16:54:10 2022.

 --------------------------------------------------------------------
 #N Geom=AllCheck Guess=TCheck SCRF=Check GenChk RM062X/def2TZVP Freq
 --------------------------------------------------------------------

 ----------------------------------------------------------------------
 converted from /home/svss/projects/Project-Philicity/GS/hydrocarbon/se
 t-1/GS/mol_10_hc/mol_10_hc_cregen_best.xyz
 ----------------------------------------------------------------------
 Charge =  0 Multiplicity = 1

                         Standard orientation:
 ---------------------------------------------------------------------
 Center     Atomic      Atomic             Coordinates (Angstroms)
 Number     Number       Type             X           Y           Z
 ---------------------------------------------------------------------
      1          6           0       -2.411729    0.000404    0.009101
      2          6           0       -0.907497    0.001161   -0.011558
      3          6           0       -0.194624   -1.195109   -0.008745
      4          6           0        1.192727   -1.199214    0.001983
      5          6           0        1.893155   -0.000847    0.008375
      6          6           0        1.194623    1.198135    0.001968
      7          6           0       -0.193205    1.196031   -0.008720
      8          1           0       -2.812497    0.906270   -0.444672
      9          1           0       -2.782953   -0.048371    1.035248
     10          1           0       -2.812372   -0.859533   -0.527195
     11          1           0       -0.735226   -2.134687   -0.017592
     12          1           0        1.728091   -2.140172    0.001831
     13          1           0        2.975311   -0.001656    0.013686
     14          1           0        1.731221    2.138385    0.001794
     15          1           0       -0.732276    2.136400   -0.017524
 ---------------------------------------------------------------------

 SCF Done:  E(RM062X) =  -271.535022274     A.U. after    1 cycles

 The electronic state is 1-A.
 Alpha  occ. eigenvalues --  -10.54672 -10.53785 -10.53773 -10.53537 -10.53510
 Alpha  occ. eigenvalues --  -10.53504 -10.53110  -0.96220  -0.86991  -0.84011
 Alpha  occ. eigenvalues --   -0.77565  -0.68704  -0.66369  -0.58598  -0.52812
 Alpha  occ. eigenvalues --   -0.52295  -0.48982  -0.48433  -0.47141  -0.44849
 Alpha  occ. eigenvalues --   -0.42506  -0.39730  -0.39494  -0.30607  -0.29582
 Alpha virt. eigenvalues --    0.02385   0.02735   0.07791   0.09376   0.10832
 Alpha virt. eigenvalues --    0.12616   0.13816   0.14134   0.15856   0.16632
 Alpha virt. eigenvalues --    0.17928   0.19309   0.20763   0.22155   0.22620

 Mulliken charges:
               1
     1  C   -0.472891
     2  C    0.126779
     3  C   -0.182425
     4  C   -0.138200
     5  C   -0.161519
     6  C   -0.138745
     7  C   -0.182364
     8  H    0.143416
     9  H    0.157793
    10  H    0.145564
    11  H    0.141449
    12  H    0.139760
    13  H    0.140796
    14  H    0.139738
    15  H    0.140847
 Sum of Mulliken charges =  -0.00000

 Dipole moment (field-independent basis, Debye):
    X=             -0.3683    Y=             -0.0059    Z=              0.0363  Tot=              0.3702
 Quadrupole moment (field-independent basis, Debye-Ang):
   XX=            -38.2764   YY=            -38.6308   ZZ=            -46.2386
   XY=              0.0093   XZ=             -0.0294   YZ=              0.0004

  Exact polarizability:      98.048       0.081      85.163      -0.291       0.001      48.209
 Approx polarizability:     118.485       0.125     114.205      -0.237      -0.000      64.605

                      1                      2                      3
                      A                      A                      A
 Frequencies --      8.4642               210.9334               346.4922
 Red. masses --      1.0366                 2.9998                 2.4926
 Frc consts  --      0.0000                 0.0786                 0.1763
 IR Inten    --      0.2230                 2.3568                 0.2884

                      4                      5                      6
                      A                      A                      A
 Frequencies --    415.0720               476.6878               529.8814
 Red. masses --      2.8949                 2.6787                 5.0435
 Frc consts  --      0.2939                 0.3586                 0.8343
 IR Inten    --      0.0043                 9.6703                 0.6357

                      7                      8                      9
                      A                      A                      A
 Frequencies --    635.7864               720.0753               753.9732
 Red. masses --      6.3279                 2.0902                 1.4417
 Frc consts  --      1.5071                 0.6385                 0.4829
 IR Inten    --      0.0792                27.0988                50.4923

                     10                     11                     12
                      A                      A                      A
 Frequencies --    808.5563               871.6346               926.9777
 Red. masses --      4.3952                 1.2499                 1.3010
 Frc consts  --      1.6930                 0.5595                 0.6587
 IR Inten    --      0.7748                 0.0226                 0.4147

                     13                     14                     15
                      A                      A                      A
 Frequencies --    989.6376              1005.5497              1010.7593
 Red. masses --      1.3705                 1.4206                 1.2874
 Frc consts  --      0.7908                 0.8463                 0.7749
 IR Inten    --      0.0000                 0.0881                 0.0289

                     16                     17                     18
                      A                      A                      A
 Frequencies --   1022.9875              1064.9860              1067.6029
 Red. masses --      5.9072                 2.1441                 1.5810
 Frc consts  --      3.6423                 1.4328                 1.0617
 IR Inten    --      0.0858                 2.9172                 6.9759

                     19                     20                     21
                      A                      A                      A
 Frequencies --   1118.8052              1177.4148              1205.3890
 Red. masses --      1.4229                 1.1446                 1.1182
 Frc consts  --      1.0494                 0.9349                 0.9572
 IR Inten    --      5.6255                 0.0135                 0.3614

                     22                     23                     24
                      A                      A                      A
 Frequencies --   1246.8445              1318.1020              1356.4863
 Red. masses --      2.8011                 4.7441                 1.3479
 Frc consts  --      2.5657                 4.8563                 1.4613
 IR Inten    --      0.6615                 0.0506                 0.0092

                     25                     26                     27
                      A                      A                      A
 Frequencies --   1413.1698              1477.0261              1491.0265
 Red. masses --      1.2776                 1.3602                 1.0484
 Frc consts  --      1.5033                 1.7483                 1.3732
 IR Inten    --      1.1568                 0.6408                 7.0569

                     28                     29                     30
                      A                      A                      A
 Frequencies --   1510.8019              1544.9600              1659.2204
 Red. masses --      1.5461                 2.4472                 5.7884
 Frc consts  --      2.0792                 3.4416                 9.3890
 IR Inten    --     13.4084                14.9425                 0.3584

                     31                     32                     33
                      A                      A                      A
 Frequencies --   1681.6628              3064.6518              3127.0559
 Red. masses --      6.0905                 1.0382                 1.0979
 Frc consts  --     10.1479                 5.7448                 6.3252
 IR Inten    --      8.4729                19.7170                11.2398

                     34                     35                     36
                      A                      A                      A
 Frequencies --   3151.1862              3192.3862              3193.8027
 Red. masses --      1.1030                 1.0869                 1.0884
 Frc consts  --      6.4530                 6.5265                 6.5412
 IR Inten    --     10.7247                 6.0565                 4.8890

                     37                     38                     39
                      A                      A                      A
 Frequencies --   3207.2899              3216.5256              3227.9362
 Red. masses --      1.0898                 1.0941                 1.0984
 Frc consts  --      6.6051                 6.6693                 6.7430
 IR Inten    --      3.5287                19.8205                 8.8784

 - Thermochemistry -
 -------------------
 Temperature   298.150 Kelvin.  Pressure   1.00000 Atm.
 Atom     1 has atomic number  6 and mass  12.00000

 Molecular mass:    92.06260 amu.
 Principal axes and moments of inertia in atomic units:
                           1         2         3
     Eigenvalues --   322.63318 710.686451022.13760
           X            1.00000   0.00006  -0.00039
           Y           -0.00006   1.00000   0.00000
           Z            0.00039  -0.00000   1.00000
 This molecule is an asymmetric top.
 Rotational symmetry number  1.
 Rotational temperatures (Kelvin)      0.26846     0.12187     0.08474
 Rotational constants (GHZ):           5.59379     2.53943     1.76565
 Zero-point vibrational energy     337632.8 (Joules/Mol)
                                   80.69618 (Kcal/Mol)
 Warning -- explicit consideration of   6 degrees of freedom as
           vibrations may cause significant error
 Vibrational temperatures:     12.18   303.49   498.52   597.20   685.85
          (Kelvin)            762.38   914.75  1036.03  1084.80  1163.33
                             1254.09  1333.71  1423.87  1446.76  1454.26
                             1471.85  1532.28  1536.04  1609.71  1694.04
                             1734.29  1793.93  1896.45  1951.68  2033.24
                             2125.11  2145.25  2173.71  2222.85  2387.25
                             2419.54  4409.35  4499.14  4533.85  4593.13
                             4595.17  4614.57  4627.86  4644.28

 Zero-point correction=                           0.128598 (Hartree/Particle)
 Thermal correction to Energy=                    0.134850
 Thermal correction to Enthalpy=                  0.135794
 Thermal correction to Gibbs Free Energy=         0.096639
 Sum of electronic and zero-point Energies=           -271.406425
 Sum of electronic and thermal Energies=              -271.400172
 Sum of electronic and thermal Enthalpies=            -271.399228
 Sum of electronic and thermal Free Energies=         -271.438384

                     E (Thermal)             CV                S
                      KCal/Mol        Cal/Mol-Kelvin    Cal/Mol-Kelvin
 Total                   84.620             23.097             82.410
 Electronic               0.000              0.000              0.000
 Translational            0.889              2.981             39.471
 Rotational               0.889              2.981             26.952
 Vibrational             82.842             17.136             15.987
 Vibration     1          0.593              1.987              8.342
 Vibration     2          0.643              1.824              2.036
 Vibration     3          0.724              1.582              1.182
 Vibration     4          0.778              1.438              0.909
 Vibration     5          0.833              1.302              0.719
 Vibration     6          0.885              1.184              0.587

                           ! Non-Optimized Parameters !
 Normal termination of Gaussian 16 at Mon Jun 20 16:59:53 2022.
