 Gaussian 16, Revision C.01,
 Gaussian 16:  AS64L-G16RevC.01  3-Jul-2019

 -------------------------
 # opt freq M062X/def2tzvp
 -------------------------

 converted from /home/svss/projects/Project-Philicity/GS/hydrocarbon/se
 t-1/GS/mol_28_hc/mol_28_hc_cregen_best.xyz
 ----------------------------------------------------------------------
 Symbolic Z-matrix:
 Charge =  0 Multiplicity = 1

 SCF Done:  E(RM062X) =  -820.146102396     A.U. after   14 cycles
 SCF Done:  E(RM062X) =  -820.148077346     A.U. after   12 cycles
 SCF Done:  E(RM062X) =  -820.148473112     A.U. after   14 cycles
 SCF Done:  E(RM062X) =  -820.148554411     A.U. after   13 cycles
 SCF Done:  E(RM062X) =  -820.148556266     A.U. after    7 cycles
 SCF Done:  E(RM062X) =  -820.148556417     A.U. after    7 cycles
 Optimization completed.
    -- Stationary point found.
 Normal termination of Gaussian 16 at Mon Jun 20 19:16:21 2022.

 --------------------------------------------------------------------
 #N Geom=AllCheck Guess=TCheck SCRF=Check GenChk RM062X/def2TZVP Freq
 --------------------------------------------------------------------

 ----------------------------------------------------------------------
 converted from /home/svss/projects/Project-Philicity/GS/hydrocarbon/se
 t-1/GS/mol_28_hc/mol_28_hc_cregen_best.xyz
 ----------------------------------------------------------------------
 Charge =  0 Multiplicity = 1

                         Standard orientation:
 ---------------------------------------------------------------------
 Center     Atomic      Atomic             Coordinates (Angstroms)
 Number     Number       Type             X           Y           Z
 ---------------------------------------------------------------------
      1          6           0        3.922854    0.000041   -0.098781
      2          6           0        2.423474    0.000107   -0.007744
      3          6           0        1.714561    1.200217    0.017644
      4          6           0        0.330678    1.209972    0.068360
      5          6           0       -0.348518   -0.000038    0.097089
      6         16           0       -2.106125   -0.000159    0.178883
      7          8           0       -2.593885   -1.252086   -0.319134
      8          8           0       -2.593943    1.252442   -0.317391
      9          6           0        0.330849   -1.210019    0.068993
     10          6           0        1.714687   -1.200119    0.018331
     11          1           0        4.237878   -0.003368   -1.144559
     12          1           0        4.346999   -0.883105    0.377186
     13          1           0        4.346802    0.886310    0.371481
     14          1           0        2.255358    2.138370   -0.008102
     15          1           0       -0.226285    2.137738    0.069869
     16          1           0       -2.321307   -0.001128    1.516844
     17          1           0       -0.225964   -2.137878    0.070883
     18          1           0        2.255624   -2.138211   -0.006875
 ---------------------------------------------------------------------

 SCF Done:  E(RM062X) =  -820.148556417     A.U. after    1 cycles

 The electronic state is 1-A.
 Alpha  occ. eigenvalues --  -90.09110 -19.62329 -19.62327 -10.58171 -10.57900
 Alpha  occ. eigenvalues --  -10.57293 -10.57288 -10.56380 -10.56376 -10.55180
 Alpha  occ. eigenvalues --   -8.42278  -6.34397  -6.34372  -6.34332  -1.24071
 Alpha  occ. eigenvalues --   -1.13567  -0.99743  -0.91018  -0.87281  -0.82545
 Alpha  occ. eigenvalues --   -0.75901  -0.72164  -0.68550  -0.63576  -0.59154
 Alpha  occ. eigenvalues --   -0.56867  -0.55170  -0.53156  -0.53153  -0.51581
 Alpha  occ. eigenvalues --   -0.51281  -0.47286  -0.45703  -0.44513  -0.42581
 Alpha  occ. eigenvalues --   -0.41927  -0.41713  -0.39515  -0.37119  -0.33626
 Alpha  occ. eigenvalues --   -0.33098
 Alpha virt. eigenvalues --   -0.02367  -0.00528   0.06054   0.06574   0.08840
 Alpha virt. eigenvalues --    0.09527   0.10451   0.10900   0.12966   0.13833
 Alpha virt. eigenvalues --    0.13971   0.15210   0.16144   0.16151   0.17707

 Mulliken charges:
               1
     1  C   -0.467033
     2  C    0.121437
     3  C   -0.164520
     4  C   -0.160419
     5  C   -0.086584
     6  S    0.763545
     7  O   -0.467782
     8  O   -0.467838
     9  C   -0.160392
    10  C   -0.164521
    11  H    0.168582
    12  H    0.150887
    13  H    0.150746
    14  H    0.154935
    15  H    0.188434
    16  H    0.097176
    17  H    0.188383
    18  H    0.154966
 Sum of Mulliken charges =  -0.00000

 Dipole moment (field-independent basis, Debye):
    X=              5.1285    Y=             -0.0017    Z=              2.1272  Tot=              5.5522
 Quadrupole moment (field-independent basis, Debye-Ang):
   XX=            -67.9950   YY=            -65.0684   ZZ=            -66.2504
   XY=              0.0024   XZ=             -6.6892   YZ=             -0.0080

  Exact polarizability:     139.104      -0.005     103.075      -2.788      -0.007      64.826
 Approx polarizability:     153.549      -0.009     147.419      -1.732      -0.008      89.604

                      1                      2                      3
                      A                      A                      A
 Frequencies --     41.1952                50.4046                95.7387
 Red. masses --      1.1395                 3.8232                 4.3876
 Frc consts  --      0.0011                 0.0057                 0.0237
 IR Inten    --      0.9904                 1.0443                 2.2744

                      4                      5                      6
                      A                      A                      A
 Frequencies --    169.6525               249.3687               308.0031
 Red. masses --      6.4551                 4.5365                 6.8936
 Frc consts  --      0.1095                 0.1662                 0.3853
 IR Inten    --      0.4342                 8.0393                 0.9059

                      7                      8                      9
                      A                      A                      A
 Frequencies --    330.6840               413.3410               423.3331
 Red. masses --      3.5887                 2.9933                 4.1826
 Frc consts  --      0.2312                 0.3013                 0.4416
 IR Inten    --      0.5672                 0.0273                 0.2436

                     10                     11                     12
                      A                      A                      A
 Frequencies --    464.9061               508.4131               590.5332
 Red. masses --      3.1749                 8.5351                 5.6529
 Frc consts  --      0.4043                 1.2998                 1.1615
 IR Inten    --     18.0950                36.1782                55.3565

                     13                     14                     15
                      A                      A                      A
 Frequencies --    647.4829               655.9679               735.1638
 Red. masses --      6.9118                 4.5678                 3.2709
 Frc consts  --      1.7073                 1.1580                 1.0416
 IR Inten    --      0.1369                49.7137                 8.8615

                     16                     17                     18
                      A                      A                      A
 Frequencies --    828.3983               846.1070               874.5718
 Red. masses --      5.0539                 1.3823                 1.2436
 Frc consts  --      2.0434                 0.5831                 0.5604
 IR Inten    --      3.9829                34.7708                 0.1080

                     19                     20                     21
                      A                      A                      A
 Frequencies --    996.6084              1007.2369              1015.0183
 Red. masses --      1.3073                 1.3696                 1.3856
 Frc consts  --      0.7650                 0.8186                 0.8411
 IR Inten    --      1.4957                 0.1252                 0.0435

                     22                     23                     24
                      A                      A                      A
 Frequencies --   1039.9459              1067.4743              1103.4754
 Red. masses --      3.2500                 1.6240                 1.1658
 Frc consts  --      2.0709                 1.0903                 0.8364
 IR Inten    --      3.3415                14.7022                75.9667

                     25                     26                     27
                      A                      A                      A
 Frequencies --   1130.9937              1136.5504              1146.7190
 Red. masses --      3.4171                 1.2283                 1.1359
 Frc consts  --      2.5753                 0.9348                 0.8800
 IR Inten    --     17.9814                 8.1648                 0.1518

                     28                     29                     30
                      A                      A                      A
 Frequencies --   1204.2379              1217.2395              1248.0070
 Red. masses --      1.6876                 2.7281                 2.8872
 Frc consts  --      1.4420                 2.3815                 2.6495
 IR Inten    --    154.7388               145.1584                 2.9207

                     31                     32                     33
                      A                      A                      A
 Frequencies --   1323.3165              1333.8458              1413.8285
 Red. masses --      7.5961                 1.2777                17.6832
 Frc consts  --      7.8373                 1.3393                20.8260
 IR Inten    --      6.1051                 4.7041               202.3776

                     34                     35                     36
                      A                      A                      A
 Frequencies --   1414.4963              1444.6702              1492.5016
 Red. masses --      1.2716                 2.3894                 1.0523
 Frc consts  --      1.4990                 2.9382                 1.3811
 IR Inten    --      2.2534                 8.3803                 7.6095

                     37                     38                     39
                      A                      A                      A
 Frequencies --   1494.2401              1544.8237              1647.5647
 Red. masses --      1.1630                 2.5254                 6.6424
 Frc consts  --      1.5300                 3.5509                10.6234
 IR Inten    --     21.4662                 4.8921                 1.9949

                     40                     41                     42
                      A                      A                      A
 Frequencies --   1673.4772              2592.2734              3068.2670
 Red. masses --      6.1008                 1.0401                 1.0381
 Frc consts  --     10.0664                 4.1181                 5.7581
 IR Inten    --     37.2329                42.7561                10.5129

                     43                     44                     45
                      A                      A                      A
 Frequencies --   3132.5969              3157.1653              3205.9678
 Red. masses --      1.0978                 1.1034                 1.0895
 Frc consts  --      6.3473                 6.4803                 6.5976
 IR Inten    --      8.1051                 7.5348                 6.2728

                     46                     47                     48
                      A                      A                      A
 Frequencies --   3206.0808              3229.8615              3230.6725
 Red. masses --      1.0896                 1.0934                 1.0948
 Frc consts  --      6.5990                 6.7203                 6.7321
 IR Inten    --      2.6999                 0.0154                 4.3153

 - Thermochemistry -
 -------------------
 Temperature   298.150 Kelvin.  Pressure   1.00000 Atm.
 Atom     1 has atomic number  6 and mass  12.00000

 Molecular mass:   156.02450 amu.
 Principal axes and moments of inertia in atomic units:
                           1         2         3
     Eigenvalues --   529.882692735.494453204.64541
           X            0.99998   0.00000  -0.00671
           Y           -0.00000   1.00000  -0.00005
           Z            0.00671   0.00005   0.99998
 This molecule is an asymmetric top.
 Rotational symmetry number  1.
 Warning -- assumption of classical behavior for rotation
           may cause significant error
 Rotational temperatures (Kelvin)      0.16346     0.03166     0.02703
 Rotational constants (GHZ):           3.40593     0.65975     0.56316
 Zero-point vibrational energy     365772.7 (Joules/Mol)
                                   87.42177 (Kcal/Mol)
 Warning -- explicit consideration of  12 degrees of freedom as
           vibrations may cause significant error
 Vibrational temperatures:     59.27    72.52   137.75   244.09   358.79
          (Kelvin)            443.15   475.78   594.71   609.08   668.90
                              731.49   849.65   931.58   943.79  1057.74
                             1191.88  1217.36  1258.31  1433.90  1449.19
                             1460.38  1496.25  1535.86  1587.65  1627.25
                             1635.24  1649.87  1732.63  1751.34  1795.60
                             1903.96  1919.11  2034.18  2035.14  2078.56
                             2147.38  2149.88  2222.66  2370.48  2407.76
                             3729.70  4414.55  4507.11  4542.46  4612.67
                             4612.84  4647.05  4648.22

 Zero-point correction=                           0.139315 (Hartree/Particle)
 Thermal correction to Energy=                    0.148612
 Thermal correction to Enthalpy=                  0.149556
 Thermal correction to Gibbs Free Energy=         0.103288
 Sum of electronic and zero-point Energies=           -820.009241
 Sum of electronic and thermal Energies=              -819.999944
 Sum of electronic and thermal Enthalpies=            -819.999000
 Sum of electronic and thermal Free Energies=         -820.045268

                     E (Thermal)             CV                S
                      KCal/Mol        Cal/Mol-Kelvin    Cal/Mol-Kelvin
 Total                   93.256             33.808             97.380
 Electronic               0.000              0.000              0.000
 Translational            0.889              2.981             41.044
 Rotational               0.889              2.981             29.920
 Vibrational             91.478             27.846             26.417
 Vibration     1          0.594              1.981              5.201
 Vibration     2          0.595              1.977              4.801
 Vibration     3          0.603              1.952              3.539
 Vibration     4          0.625              1.880              2.439
 Vibration     5          0.662              1.764              1.735
 Vibration     6          0.698              1.658              1.373
 Vibration     7          0.713              1.614              1.257
 Vibration     8          0.777              1.441              0.915
 Vibration     9          0.785              1.419              0.881
 Vibration    10          0.822              1.328              0.752
 Vibration    11          0.864              1.231              0.637
 Vibration    12          0.948              1.052              0.466

                           ! Non-Optimized Parameters !
 Normal termination of Gaussian 16 at Mon Jun 20 19:28:02 2022.
