 Gaussian 16, Revision C.01,
 Gaussian 16:  AS64L-G16RevC.01  3-Jul-2019

 -------------------------
 # opt freq M062X/def2tzvp
 -------------------------

 converted from /home/svss/projects/Project-Philicity/GS/hydrocarbon/se
 t-1/GS/mol_26_hc/mol_26_hc_cregen_best.xyz
 ----------------------------------------------------------------------
 Symbolic Z-matrix:
 Charge =  0 Multiplicity = 1

 SCF Done:  E(RM062X) =  -477.990638924     A.U. after   13 cycles
 SCF Done:  E(RM062X) =  -477.990881923     A.U. after   11 cycles
 SCF Done:  E(RM062X) =  -477.990911101     A.U. after    9 cycles
 SCF Done:  E(RM062X) =  -477.990912756     A.U. after    8 cycles
 Optimization completed.
    -- Stationary point found.
 Normal termination of Gaussian 16 at Mon Jun 20 18:55:25 2022.

 --------------------------------------------------------------------
 #N Geom=AllCheck Guess=TCheck SCRF=Check GenChk RM062X/def2TZVP Freq
 --------------------------------------------------------------------

 ----------------------------------------------------------------------
 converted from /home/svss/projects/Project-Philicity/GS/hydrocarbon/se
 t-1/GS/mol_26_hc/mol_26_hc_cregen_best.xyz
 ----------------------------------------------------------------------
 Charge =  0 Multiplicity = 1

                         Standard orientation:
 ---------------------------------------------------------------------
 Center     Atomic      Atomic             Coordinates (Angstroms)
 Number     Number       Type             X           Y           Z
 ---------------------------------------------------------------------
      1          6           0        1.628699   -0.349885   -0.053323
      2          6           0        0.491382    0.645964    0.090006
      3         16           0       -1.156047   -0.100339   -0.078745
      4          1           0        2.593426    0.156742    0.014697
      5          1           0        1.586289   -1.101656    0.735889
      6          1           0        1.571692   -0.865212   -1.011532
      7          1           0        0.529446    1.394603   -0.701546
      8          1           0        0.545032    1.177585    1.038884
      9          1           0       -1.049623   -0.933118    0.963433
 ---------------------------------------------------------------------

 SCF Done:  E(RM062X) =  -477.990912756     A.U. after    1 cycles

 The electronic state is 1-A.
 Alpha  occ. eigenvalues --  -89.89034 -10.56843 -10.53411  -8.24969  -6.16941
 Alpha  occ. eigenvalues --   -6.16740  -6.16416  -0.89910  -0.79132  -0.68932
 Alpha  occ. eigenvalues --   -0.54070  -0.50156  -0.47100  -0.43924  -0.41656
 Alpha  occ. eigenvalues --   -0.37790  -0.29240
 Alpha virt. eigenvalues --    0.04716   0.09101   0.09499   0.11736   0.12546
 Alpha virt. eigenvalues --    0.14602   0.15562   0.18654   0.22597   0.24500
 Alpha virt. eigenvalues --    0.25275   0.26319   0.29252   0.30933   0.31055

 Mulliken charges:
               1
     1  C   -0.396269
     2  C   -0.243361
     3  S   -0.208903
     4  H    0.134846
     5  H    0.133074
     6  H    0.147567
     7  H    0.145626
     8  H    0.150618
     9  H    0.136801
 Sum of Mulliken charges =  -0.00000

 Dipole moment (field-independent basis, Debye):
    X=              1.5210    Y=              0.1273    Z=              0.6785  Tot=              1.6703
 Quadrupole moment (field-independent basis, Debye-Ang):
   XX=            -29.2687   YY=            -27.2282   ZZ=            -27.0394
   XY=              1.3156   XZ=             -0.6303   YZ=             -1.6969

  Exact polarizability:      52.650       2.696      40.362       0.347      -1.631      37.982
 Approx polarizability:      57.686       4.395      50.553       0.708      -3.206      49.153

                      1                      2                      3
                      A                      A                      A
 Frequencies --    130.0001               258.6784               334.6599
 Red. masses --      1.0604                 1.1074                 2.9956
 Frc consts  --      0.0106                 0.0437                 0.1977
 IR Inten    --     15.5684                 0.8694                 0.9525

                      4                      5                      6
                      A                      A                      A
 Frequencies --    681.8242               742.5875               885.3552
 Red. masses --      3.4411                 1.1889                 1.0669
 Frc consts  --      0.9425                 0.3863                 0.4927
 IR Inten    --      2.7157                 1.8935                 6.0365

                      7                      8                      9
                      A                      A                      A
 Frequencies --    998.8084              1076.4623              1129.1085
 Red. masses --      1.7231                 1.8552                 1.4686
 Frc consts  --      1.0128                 1.2666                 1.1032
 IR Inten    --      5.9779                 0.3956                 7.1118

                     10                     11                     12
                      A                      A                      A
 Frequencies --   1284.0886              1310.0559              1413.0246
 Red. masses --      1.1744                 1.3053                 1.2428
 Frc consts  --      1.1409                 1.3199                 1.4620
 IR Inten    --      2.3957                17.7878                 4.3132

                     13                     14                     15
                      A                      A                      A
 Frequencies --   1481.3837              1493.1633              1499.3370
 Red. masses --      1.0817                 1.0396                 1.0477
 Frc consts  --      1.3986                 1.3656                 1.3877
 IR Inten    --      1.6857                10.7612                 3.6463

                     16                     17                     18
                      A                      A                      A
 Frequencies --   2721.6319              3062.7328              3092.2560
 Red. masses --      1.0385                 1.0357                 1.0601
 Frc consts  --      4.5324                 5.7241                 5.9722
 IR Inten    --      1.9962                20.1727                10.6429

                     19                     20                     21
                      A                      A                      A
 Frequencies --   3127.8231              3136.3745              3155.5561
 Red. masses --      1.1028                 1.1025                 1.1048
 Frc consts  --      6.3567                 6.3895                 6.4815
 IR Inten    --     12.3494                 9.9505                17.6972

 - Thermochemistry -
 -------------------
 Temperature   298.150 Kelvin.  Pressure   1.00000 Atm.
 Atom     1 has atomic number  6 and mass  12.00000

 Molecular mass:    62.01902 amu.
 Principal axes and moments of inertia in atomic units:
                           1         2         3
     Eigenvalues --    62.23856 338.54619 369.67282
           X            0.99991  -0.00547  -0.01241
           Y            0.00463   0.99776  -0.06677
           Z            0.01275   0.06671   0.99769
 This molecule is an asymmetric top.
 Rotational symmetry number  1.
 Rotational temperatures (Kelvin)      1.39164     0.25584     0.23430
 Rotational constants (GHZ):          28.99715     5.33086     4.88200
 Zero-point vibrational energy     197473.0 (Joules/Mol)
                                   47.19719 (Kcal/Mol)
 Warning -- explicit consideration of   3 degrees of freedom as
           vibrations may cause significant error
 Vibrational temperatures:    187.04   372.18   481.50   980.99  1068.42
          (Kelvin)           1273.83  1437.06  1548.79  1624.54  1847.52
                             1884.88  2033.03  2131.38  2148.33  2157.21
                             3915.82  4406.59  4449.07  4500.24  4512.54
                             4540.14

 Zero-point correction=                           0.075214 (Hartree/Particle)
 Thermal correction to Energy=                    0.079983
 Thermal correction to Enthalpy=                  0.080928
 Thermal correction to Gibbs Free Energy=         0.048248
 Sum of electronic and zero-point Energies=           -477.915699
 Sum of electronic and thermal Energies=              -477.910929
 Sum of electronic and thermal Enthalpies=            -477.909985
 Sum of electronic and thermal Free Energies=         -477.942665

                     E (Thermal)             CV                S
                      KCal/Mol        Cal/Mol-Kelvin    Cal/Mol-Kelvin
 Total                   50.190             14.943             68.781
 Electronic               0.000              0.000              0.000
 Translational            0.889              2.981             38.294
 Rotational               0.889              2.981             23.570
 Vibrational             48.413              8.981              6.917
 Vibration     1          0.612              1.923              2.946
 Vibration     2          0.667              1.748              1.671
 Vibration     3          0.716              1.606              1.237

                           ! Non-Optimized Parameters !
 Normal termination of Gaussian 16 at Mon Jun 20 18:56:15 2022.
