 Gaussian 16, Revision C.01,
 Gaussian 16:  AS64L-G16RevC.01  3-Jul-2019

 -------------------------
 # opt freq M062X/def2tzvp
 -------------------------

 converted from /home/svss/projects/Project-Philicity/GS/hydrocarbon/se
 t-1/GS/mol_9_hc/mol_9_hc_cregen_best.xyz
 ----------------------------------------------------------------------
 Symbolic Z-matrix:
 Charge =  0 Multiplicity = 1

 SCF Done:  E(RM062X) =  -40.5002043492     A.U. after    9 cycles
 SCF Done:  E(RM062X) =  -40.5002845485     A.U. after    6 cycles
 Optimization completed.
    -- Stationary point found.
 Normal termination of Gaussian 16 at Mon Jun 20 16:50:27 2022.

 --------------------------------------------------------------------
 #N Geom=AllCheck Guess=TCheck SCRF=Check GenChk RM062X/def2TZVP Freq
 --------------------------------------------------------------------

 ----------------------------------------------------------------------
 converted from /home/svss/projects/Project-Philicity/GS/hydrocarbon/se
 t-1/GS/mol_9_hc/mol_9_hc_cregen_best.xyz
 ----------------------------------------------------------------------
 Charge =  0 Multiplicity = 1

                         Standard orientation:
 ---------------------------------------------------------------------
 Center     Atomic      Atomic             Coordinates (Angstroms)
 Number     Number       Type             X           Y           Z
 ---------------------------------------------------------------------
      1          6           0       -0.000000   -0.000000   -0.000009
      2          1           0        0.174220   -1.054930   -0.200535
      3          1           0       -0.902878    0.322560   -0.514011
      4          1           0        0.847521    0.581625   -0.356188
      5          1           0       -0.118861    0.150746    1.070786
 ---------------------------------------------------------------------

 SCF Done:  E(RM062X) =  -40.5002845485     A.U. after    1 cycles

 The electronic state is 1-A.
 Alpha  occ. eigenvalues --  -10.51437  -0.78590  -0.45593  -0.45593  -0.45592
 Alpha virt. eigenvalues --    0.08661   0.16228   0.16228   0.16228   0.23822
 Alpha virt. eigenvalues --    0.23822   0.23822   0.41702   0.52201   0.52201
 Alpha virt. eigenvalues --    0.52202   0.58711   0.64113   0.64113   0.97238

 Mulliken charges:
               1
     1  C   -0.558099
     2  H    0.139525
     3  H    0.139525
     4  H    0.139525
     5  H    0.139525
 Sum of Mulliken charges =   0.00000

 Dipole moment (field-independent basis, Debye):
    X=             -0.0000    Y=              0.0000    Z=              0.0000  Tot=              0.0000
 Quadrupole moment (field-independent basis, Debye-Ang):
   XX=             -8.4508   YY=             -8.4509   ZZ=             -8.4510
   XY=             -0.0000   XZ=              0.0000   YZ=             -0.0000

  Exact polarizability:      14.821       0.002      14.821       0.003       0.001      14.827
 Approx polarizability:      15.738      -0.000      15.738      -0.000       0.000      15.738

                      1                      2                      3
                      A                      A                      A
 Frequencies --   1339.8845              1339.9981              1340.4019
 Red. masses --      1.1792                 1.1792                 1.1792
 Frc consts  --      1.2473                 1.2475                 1.2482
 IR Inten    --     15.2457                15.2437                15.2640

                      4                      5                      6
                      A                      A                      A
 Frequencies --   1562.7897              1562.9202              3063.8638
 Red. masses --      1.0078                 1.0078                 1.0078
 Frc consts  --      1.4502                 1.4505                 5.5741
 IR Inten    --      0.0000                 0.0000                 0.0003

                      7                      8                      9
                      A                      A                      A
 Frequencies --   3178.5499              3179.1066              3179.5228
 Red. masses --      1.1015                 1.1015                 1.1015
 Frc consts  --      6.5566                 6.5589                 6.5608
 IR Inten    --     17.0337                16.9678                16.7935

 - Thermochemistry -
 -------------------
 Temperature   298.150 Kelvin.  Pressure   1.00000 Atm.
 Atom     1 has atomic number  6 and mass  12.00000

 Molecular mass:    16.03130 amu.
 Principal axes and moments of inertia in atomic units:
                           1         2         3
     Eigenvalues --    11.35778  11.35787  11.35809
           X            1.00000  -0.00000  -0.00000
           Y            0.00000   1.00000  -0.00000
           Z            0.00000   0.00000   1.00000
 This molecule is an asymmetric top.
 Rotational symmetry number  1.
 Rotational temperatures (Kelvin)      7.62596     7.62589     7.62575
 Rotational constants (GHZ):         158.89916   158.89784   158.89483
 Zero-point vibrational energy     118113.5 (Joules/Mol)
                                   28.22981 (Kcal/Mol)
 Vibrational temperatures:   1927.79  1927.96  1928.54  2248.51  2248.69
          (Kelvin)           4408.22  4573.22  4574.03  4574.62

 Zero-point correction=                           0.044987 (Hartree/Particle)
 Thermal correction to Energy=                    0.047856
 Thermal correction to Enthalpy=                  0.048800
 Thermal correction to Gibbs Free Energy=         0.025331
 Sum of electronic and zero-point Energies=            -40.455297
 Sum of electronic and thermal Energies=               -40.452429
 Sum of electronic and thermal Enthalpies=             -40.451485
 Sum of electronic and thermal Free Energies=          -40.474954

                     E (Thermal)             CV                S
                      KCal/Mol        Cal/Mol-Kelvin    Cal/Mol-Kelvin
 Total                   30.030              6.471             49.395
 Electronic               0.000              0.000              0.000
 Translational            0.889              2.981             34.261
 Rotational               0.889              2.981             15.046
 Vibrational             28.252              0.509              0.087

 Optimization completed.
    -- Stationary point found.
 Normal termination of Gaussian 16 at Mon Jun 20 16:50:34 2022.
