 Gaussian 16, Revision C.01,
 Gaussian 16:  AS64L-G16RevC.01  3-Jul-2019

 -------------------------
 # opt freq M062X/def2tzvp
 -------------------------

 converted from /home/svss/projects/Project-Philicity/GS/hydrocarbon/se
 t-1/GS/mol_29_hc/mol_29_hc_cregen_best.xyz
 ----------------------------------------------------------------------
 Symbolic Z-matrix:
 Charge =  0 Multiplicity = 1

 SCF Done:  E(RM062X) =  -780.834617828     A.U. after   14 cycles
 SCF Done:  E(RM062X) =  -780.836488589     A.U. after   12 cycles
 SCF Done:  E(RM062X) =  -780.836891725     A.U. after   11 cycles
 SCF Done:  E(RM062X) =  -780.836967208     A.U. after   10 cycles
 SCF Done:  E(RM062X) =  -780.836969111     A.U. after    8 cycles
 Optimization completed.
    -- Stationary point found.
 Normal termination of Gaussian 16 at Mon Jun 20 19:35:51 2022.

 --------------------------------------------------------------------
 #N Geom=AllCheck Guess=TCheck SCRF=Check GenChk RM062X/def2TZVP Freq
 --------------------------------------------------------------------

 ----------------------------------------------------------------------
 converted from /home/svss/projects/Project-Philicity/GS/hydrocarbon/se
 t-1/GS/mol_29_hc/mol_29_hc_cregen_best.xyz
 ----------------------------------------------------------------------
 Charge =  0 Multiplicity = 1

                         Standard orientation:
 ---------------------------------------------------------------------
 Center     Atomic      Atomic             Coordinates (Angstroms)
 Number     Number       Type             X           Y           Z
 ---------------------------------------------------------------------
      1          8           0       -2.150233   -1.252045   -0.297789
      2         16           0       -1.655899   -0.000273    0.192926
      3          8           0       -2.150290    1.252644   -0.294813
      4          6           0        0.104293   -0.000068    0.083667
      5          6           0        0.776983   -1.213593    0.043963
      6          6           0        2.161544   -1.206672   -0.029638
      7          6           0        2.848777    0.000154   -0.063575
      8          6           0        2.161291    1.206838   -0.030805
      9          6           0        0.776709    1.213542    0.042886
     10          1           0       -1.844972   -0.001921    1.535190
     11          1           0        0.215077   -2.138188    0.051555
     12          1           0        2.703697   -2.141916   -0.067965
     13          1           0        3.929411    0.000238   -0.123554
     14          1           0        2.703231    2.142170   -0.070046
     15          1           0        0.214543    2.137976    0.049840
 ---------------------------------------------------------------------

 SCF Done:  E(RM062X) =  -780.836969111     A.U. after    1 cycles

 The electronic state is 1-A.
 Alpha  occ. eigenvalues --  -90.09445 -19.62669 -19.62667 -10.58745 -10.57626
 Alpha  occ. eigenvalues --  -10.57621 -10.57300 -10.56980 -10.56969  -8.42617
 Alpha  occ. eigenvalues --   -6.34738  -6.34710  -6.34670  -1.24420  -1.13921
 Alpha  occ. eigenvalues --   -0.99809  -0.89323  -0.87665  -0.78648  -0.72189
 Alpha  occ. eigenvalues --   -0.70104  -0.64262  -0.60312  -0.56840  -0.56079
 Alpha  occ. eigenvalues --   -0.54015  -0.53068  -0.52049  -0.47446  -0.45719
 Alpha  occ. eigenvalues --   -0.43492  -0.42294  -0.42055  -0.39865  -0.37423
 Alpha  occ. eigenvalues --   -0.34598  -0.33945
 Alpha virt. eigenvalues --   -0.02854  -0.00692   0.06024   0.07031   0.09688
 Alpha virt. eigenvalues --    0.10279   0.10638   0.11184   0.13685   0.14919
 Alpha virt. eigenvalues --    0.14983   0.15833   0.18097   0.21208   0.21650

 Mulliken charges:
               1
     1  O   -0.465913
     2  S    0.764752
     3  O   -0.466007
     4  C   -0.064036
     5  C   -0.162406
     6  C   -0.132836
     7  C   -0.123247
     8  C   -0.132815
     9  C   -0.162379
    10  H    0.098918
    11  H    0.190202
    12  H    0.155241
    13  H    0.154994
    14  H    0.155244
    15  H    0.190289
 Sum of Mulliken charges =  -0.00000

 Dipole moment (field-independent basis, Debye):
    X=              4.5212    Y=             -0.0022    Z=              2.1351  Tot=              4.9999
 Quadrupole moment (field-independent basis, Debye-Ang):
   XX=            -59.6942   YY=            -58.1588   ZZ=            -59.9130
   XY=              0.0054   XZ=             -5.5108   YZ=             -0.0140

  Exact polarizability:     114.136       0.002      94.901      -2.394      -0.012      55.310
 Approx polarizability:     134.406      -0.001     134.722      -1.694      -0.015      76.383

                      1                      2                      3
                      A                      A                      A
 Frequencies --     47.5152               142.8125               190.5352
 Red. masses --      5.9885                 4.8289                 7.0436
 Frc consts  --      0.0080                 0.0580                 0.1507
 IR Inten    --      1.7197                 4.4025                 0.5019

                      4                      5                      6
                      A                      A                      A
 Frequencies --    319.0084               398.2061               411.4334
 Red. masses --      8.4042                 6.8523                 2.9342
 Frc consts  --      0.5039                 0.6402                 0.2926
 IR Inten    --      2.0689                 0.7057                 0.0270

                      7                      8                      9
                      A                      A                      A
 Frequencies --    419.4438               518.4668               600.3997
 Red. masses --      3.7902                10.5918                 5.8103
 Frc consts  --      0.3929                 1.6775                 1.2340
 IR Inten    --     12.1907                49.3289                72.4783

                     10                     11                     12
                      A                      A                      A
 Frequencies --    626.9488               712.0716               727.6343
 Red. masses --      6.4121                 2.3159                 3.6670
 Frc consts  --      1.4850                 0.6919                 1.1439
 IR Inten    --      0.0204                29.0985                32.1136

                     13                     14                     15
                      A                      A                      A
 Frequencies --    787.0945               882.1003               970.8114
 Red. masses --      1.7472                 1.2417                 1.3510
 Frc consts  --      0.6377                 0.5693                 0.7502
 IR Inten    --     30.9398                 0.2359                 3.3361

                     16                     17                     18
                      A                      A                      A
 Frequencies --   1013.0350              1019.6409              1036.2065
 Red. masses --      1.3722                 6.1637                 1.3266
 Frc consts  --      0.8297                 3.7756                 0.8393
 IR Inten    --      0.1037                 3.5666                 0.4136

                     19                     20                     21
                      A                      A                      A
 Frequencies --   1058.3599              1098.9162              1109.7325
 Red. masses --      2.4623                 1.1789                 1.4704
 Frc consts  --      1.6250                 0.8388                 1.0669
 IR Inten    --      1.5893                59.9883                 6.3853

                     22                     23                     24
                      A                      A                      A
 Frequencies --   1127.3201              1144.7675              1183.4738
 Red. masses --      3.3115                 1.0974                 1.1582
 Frc consts  --      2.4796                 0.8474                 0.9558
 IR Inten    --     19.1548                 1.9536                 0.5082

                     25                     26                     27
                      A                      A                      A
 Frequencies --   1202.3663              1214.8817              1326.9413
 Red. masses --      1.2368                 6.0533                 4.0452
 Frc consts  --      1.0535                 5.2639                 4.1966
 IR Inten    --     43.8405               227.1196                 3.0048

                     28                     29                     30
                      A                      A                      A
 Frequencies --   1346.1015              1415.6763              1493.4275
 Red. masses --      1.4527                17.4215                 2.2807
 Frc consts  --      1.5509                20.5714                 2.9970
 IR Inten    --     12.9183               201.3241                22.1626

                     31                     32                     33
                      A                      A                      A
 Frequencies --   1525.6263              1660.6387              1662.1080
 Red. masses --      2.1834                 6.1929                 5.7765
 Frc consts  --      2.9941                10.0623                 9.4024
 IR Inten    --      2.1933                 0.4012                 5.2776

                     34                     35                     36
                      A                      A                      A
 Frequencies --   2593.6091              3209.6991              3220.8400
 Red. masses --      1.0402                 1.0866                 1.0889
 Frc consts  --      4.1225                 6.5956                 6.6556
 IR Inten    --     41.2905                 0.8364                 4.7089

                     37                     38                     39
                      A                      A                      A
 Frequencies --   3226.4030              3233.8307              3237.2614
 Red. masses --      1.0924                 1.0950                 1.0984
 Frc consts  --      6.6997                 6.7468                 6.7823
 IR Inten    --      0.2437                 0.1124                 8.0370

 - Thermochemistry -
 -------------------
 Temperature   298.150 Kelvin.  Pressure   1.00000 Atm.
 Atom     1 has atomic number  8 and mass  15.99491

 Molecular mass:   142.00885 amu.
 Principal axes and moments of inertia in atomic units:
                           1         2         3
     Eigenvalues --   519.572601784.382962257.07169
           X            0.99997   0.00001  -0.00733
           Y           -0.00001   1.00000  -0.00008
           Z            0.00733   0.00008   0.99997
 This molecule is an asymmetric top.
 Rotational symmetry number  1.
 Warning -- assumption of classical behavior for rotation
           may cause significant error
 Rotational temperatures (Kelvin)      0.16670     0.04854     0.03837
 Rotational constants (GHZ):           3.47351     1.01141     0.79959
 Zero-point vibrational energy     293775.0 (Joules/Mol)
                                   70.21391 (Kcal/Mol)
 Warning -- explicit consideration of   9 degrees of freedom as
           vibrations may cause significant error
 Vibrational temperatures:     68.36   205.48   274.14   458.98   572.93
          (Kelvin)            591.96   603.49   745.96   863.84   902.04
                             1024.51  1046.90  1132.45  1269.15  1396.78
                             1457.53  1467.04  1490.87  1522.74  1581.10
                             1596.66  1621.96  1647.07  1702.75  1729.94
                             1747.94  1909.17  1936.74  2036.84  2148.71
                             2195.04  2389.29  2391.40  3731.63  4618.04
                             4634.07  4642.07  4652.76  4657.70

 Zero-point correction=                           0.111893 (Hartree/Particle)
 Thermal correction to Energy=                    0.119316
 Thermal correction to Enthalpy=                  0.120260
 Thermal correction to Gibbs Free Energy=         0.078834
 Sum of electronic and zero-point Energies=           -780.725076
 Sum of electronic and thermal Energies=              -780.717653
 Sum of electronic and thermal Enthalpies=            -780.716709
 Sum of electronic and thermal Free Energies=         -780.758135

                     E (Thermal)             CV                S
                      KCal/Mol        Cal/Mol-Kelvin    Cal/Mol-Kelvin
 Total                   74.872             27.733             87.188
 Electronic               0.000              0.000              0.000
 Translational            0.889              2.981             40.763
 Rotational               0.889              2.981             29.127
 Vibrational             73.094             21.771             17.297
 Vibration     1          0.595              1.979              4.918
 Vibration     2          0.616              1.910              2.766
 Vibration     3          0.634              1.853              2.223
 Vibration     4          0.705              1.637              1.315
 Vibration     5          0.764              1.474              0.969
 Vibration     6          0.775              1.445              0.922
 Vibration     7          0.782              1.428              0.894
 Vibration     8          0.873              1.209              0.614
 Vibration     9          0.959              1.031              0.449

                           ! Non-Optimized Parameters !
 Normal termination of Gaussian 16 at Mon Jun 20 19:43:33 2022.
