 Gaussian 16, Revision C.01,
 Gaussian 16:  AS64L-G16RevC.01  3-Jul-2019

 -------------------------
 # opt freq M062X/def2tzvp
 -------------------------

 converted from /home/svss/projects/Project-Philicity/GS/hydrocarbon/se
 t-1/GS/mol_17_hc/mol_17_hc_cregen_best.xyz
 ----------------------------------------------------------------------
 Symbolic Z-matrix:
 Charge =  0 Multiplicity = 1

 SCF Done:  E(RM062X) =  -331.478653089     A.U. after   13 cycles
 SCF Done:  E(RM062X) =  -331.478819142     A.U. after   10 cycles
 SCF Done:  E(RM062X) =  -331.478821874     A.U. after    7 cycles
 Optimization completed.
    -- Stationary point found.
 Normal termination of Gaussian 16 at Mon Jun 20 17:47:27 2022.

 --------------------------------------------------------------------
 #N Geom=AllCheck Guess=TCheck SCRF=Check GenChk RM062X/def2TZVP Freq
 --------------------------------------------------------------------

 ----------------------------------------------------------------------
 converted from /home/svss/projects/Project-Philicity/GS/hydrocarbon/se
 t-1/GS/mol_17_hc/mol_17_hc_cregen_best.xyz
 ----------------------------------------------------------------------
 Charge =  0 Multiplicity = 1

                         Standard orientation:
 ---------------------------------------------------------------------
 Center     Atomic      Atomic             Coordinates (Angstroms)
 Number     Number       Type             X           Y           Z
 ---------------------------------------------------------------------
      1          9           0       -2.266447   -0.000000   -0.000014
      2          6           0       -0.924207    0.000006   -0.000002
      3          6           0       -0.259876    1.210874   -0.000006
      4          6           0        1.128072    1.201592   -0.000002
      5          6           0        1.823811   -0.000001    0.000010
      6          6           0        1.128063   -1.201598    0.000013
      7          6           0       -0.259877   -1.210872    0.000004
      8          1           0       -0.827878    2.130995   -0.000017
      9          1           0        1.666268    2.140326   -0.000001
     10          1           0        2.905351   -0.000011    0.000014
     11          1           0        1.666262   -2.140330    0.000017
     12          1           0       -0.827905   -2.130978    0.000009
 ---------------------------------------------------------------------

 SCF Done:  E(RM062X) =  -331.478821874     A.U. after    1 cycles

 The electronic state is 1-A.
 Alpha  occ. eigenvalues --  -25.25540 -10.62840 -10.55423 -10.55421 -10.55047
 Alpha  occ. eigenvalues --  -10.55045 -10.54671  -1.37270  -0.97509  -0.86041
 Alpha  occ. eigenvalues --   -0.85194  -0.71521  -0.70566  -0.63281  -0.57713
 Alpha  occ. eigenvalues --   -0.57690  -0.56983  -0.52031  -0.50451  -0.48470
 Alpha  occ. eigenvalues --   -0.44298  -0.43696  -0.41290  -0.32237  -0.30752
 Alpha virt. eigenvalues --    0.01065   0.02498   0.07826   0.10463   0.11555
 Alpha virt. eigenvalues --    0.12992   0.13738   0.15151   0.18811   0.18977
 Alpha virt. eigenvalues --    0.22392   0.23513   0.23554   0.25473   0.26329

 Mulliken charges:
               1
     1  F   -0.206317
     2  C    0.288626
     3  C   -0.213439
     4  C   -0.125301
     5  C   -0.157956
     6  C   -0.125302
     7  C   -0.213438
     8  H    0.154256
     9  H    0.149356
    10  H    0.145903
    11  H    0.149356
    12  H    0.154256
 Sum of Mulliken charges =  -0.00000

 Dipole moment (field-independent basis, Debye):
    X=              1.5557    Y=              0.0000    Z=              0.0000  Tot=              1.5557
 Quadrupole moment (field-independent basis, Debye-Ang):
   XX=            -40.3602   YY=            -34.2766   ZZ=            -43.3250
   XY=             -0.0000   XZ=              0.0000   YZ=             -0.0001

  Exact polarizability:      77.811       0.000      75.984       0.000      -0.000      38.415
 Approx polarizability:     102.545       0.000      99.939       0.000      -0.000      51.147

                      1                      2                      3
                      A                      A                      A
 Frequencies --    241.9789               411.6279               425.4490
 Red. masses --      5.2661                 6.1092                 2.9856
 Frc consts  --      0.1817                 0.6099                 0.3184
 IR Inten    --      0.0606                 2.2733                 0.0000

                      4                      5                      6
                      A                      A                      A
 Frequencies --    515.8997               527.8754               627.3532
 Red. masses --      2.7944                 8.4236                 6.5206
 Frc consts  --      0.4382                 1.3830                 1.5120
 IR Inten    --     11.2885                 4.5395                 0.1449

                      7                      8                      9
                      A                      A                      A
 Frequencies --    707.6503               782.9019               837.6576
 Red. masses --      2.3452                 1.5537                 6.1389
 Frc consts  --      0.6919                 0.5611                 2.5379
 IR Inten    --     22.6625                70.6193                23.7051

                     10                     11                     12
                      A                      A                      A
 Frequencies --    850.3473               932.2343               988.8586
 Red. masses --      1.2444                 1.4560                 1.3516
 Frc consts  --      0.5302                 0.7455                 0.7787
 IR Inten    --      0.0000                 8.0453                 0.0000

                     13                     14                     15
                      A                      A                      A
 Frequencies --   1003.4008              1026.7378              1051.5659
 Red. masses --      1.2676                 5.8864                 1.9086
 Frc consts  --      0.7519                 3.6561                 1.2435
 IR Inten    --      0.0841                 0.2541                 3.6783

                     16                     17                     18
                      A                      A                      A
 Frequencies --   1097.2581              1176.2413              1177.6651
 Red. masses --      1.3839                 1.1679                 1.1446
 Frc consts  --      0.9817                 0.9520                 0.9353
 IR Inten    --      7.1218                 0.1265                 8.0684

                     19                     20                     21
                      A                      A                      A
 Frequencies --   1286.3905              1316.9962              1342.5628
 Red. masses --      3.8955                 2.7291                 1.8274
 Frc consts  --      3.7980                 2.7889                 1.9407
 IR Inten    --     95.8199                 0.0647                 0.8718

                     22                     23                     24
                      A                      A                      A
 Frequencies --   1503.2782              1547.0574              1676.3981
 Red. masses --      2.3823                 2.6496                 6.2930
 Frc consts  --      3.1719                 3.7363                10.4199
 IR Inten    --      1.3700                90.7240                56.5388

                     25                     26                     27
                      A                      A                      A
 Frequencies --   1680.2234              3210.2738              3219.1391
 Red. masses --      6.9225                 1.0858                 1.0899
 Frc consts  --     11.5145                 6.5933                 6.6546
 IR Inten    --      9.3680                 0.0305                 5.3731

                     28                     29                     30
                      A                      A                      A
 Frequencies --   3230.1292              3238.2024              3240.3266
 Red. masses --      1.0933                 1.0950                 1.0975
 Frc consts  --      6.7212                 6.7651                 6.7896
 IR Inten    --      8.5146                 1.0742                 0.2890

 - Thermochemistry -
 -------------------
 Temperature   298.150 Kelvin.  Pressure   1.00000 Atm.
 Atom     1 has atomic number  9 and mass  18.99840

 Molecular mass:    96.03753 amu.
 Principal axes and moments of inertia in atomic units:
                           1         2         3
     Eigenvalues --   315.06807 696.071861011.13993
           X            1.00000   0.00000  -0.00001
           Y           -0.00000   1.00000   0.00001
           Z            0.00001  -0.00001   1.00000
 This molecule is an asymmetric top.
 Rotational symmetry number  1.
 Rotational temperatures (Kelvin)      0.27491     0.12443     0.08566
 Rotational constants (GHZ):           5.72810     2.59275     1.78486
 Zero-point vibrational energy     244478.9 (Joules/Mol)
                                   58.43186 (Kcal/Mol)
 Warning -- explicit consideration of   5 degrees of freedom as
           vibrations may cause significant error
 Vibrational temperatures:    348.15   592.24   612.13   742.26   759.50
          (Kelvin)            902.62  1018.15  1126.42  1205.20  1223.46
                             1341.28  1422.75  1443.67  1477.25  1512.97
                             1578.71  1692.35  1694.40  1850.83  1894.86
                             1931.65  2162.88  2225.87  2411.96  2417.47
                             4618.87  4631.62  4647.44  4659.05  4662.11

 Zero-point correction=                           0.093117 (Hartree/Particle)
 Thermal correction to Energy=                    0.098213
 Thermal correction to Enthalpy=                  0.099157
 Thermal correction to Gibbs Free Energy=         0.064331
 Sum of electronic and zero-point Energies=           -331.385705
 Sum of electronic and thermal Energies=              -331.380609
 Sum of electronic and thermal Enthalpies=            -331.379665
 Sum of electronic and thermal Free Energies=         -331.414491

                     E (Thermal)             CV                S
                      KCal/Mol        Cal/Mol-Kelvin    Cal/Mol-Kelvin
 Total                   61.630             19.888             73.298
 Electronic               0.000              0.000              0.000
 Translational            0.889              2.981             39.597
 Rotational               0.889              2.981             26.897
 Vibrational             59.852             13.926              6.803
 Vibration     1          0.658              1.776              1.788
 Vibration     2          0.776              1.445              0.921
 Vibration     3          0.787              1.415              0.874
 Vibration     4          0.871              1.215              0.620
 Vibration     5          0.883              1.188              0.592

 Optimization completed.
    -- Stationary point found.
 Normal termination of Gaussian 16 at Mon Jun 20 17:51:11 2022.
