 Gaussian 16, Revision C.01,
 Gaussian 16:  AS64L-G16RevC.01  3-Jul-2019

 -------------------------
 # opt freq M062X/def2tzvp
 -------------------------

 converted from /home/svss/projects/Project-Philicity/GS/hydrocarbon/se
 t-1/GS/mol_27_hc/mol_27_hc_cregen_best.xyz
 ----------------------------------------------------------------------
 Symbolic Z-matrix:
 Charge =  0 Multiplicity = 1

 SCF Done:  E(RM062X) =  -307.457164342     A.U. after   14 cycles
 SCF Done:  E(RM062X) =  -307.457304868     A.U. after   10 cycles
 SCF Done:  E(RM062X) =  -307.457308414     A.U. after    9 cycles
 Optimization completed.
    -- Stationary point found.
 Normal termination of Gaussian 16 at Mon Jun 20 18:59:32 2022.

 --------------------------------------------------------------------
 #N Geom=AllCheck Guess=TCheck SCRF=Check GenChk RM062X/def2TZVP Freq
 --------------------------------------------------------------------

 ----------------------------------------------------------------------
 converted from /home/svss/projects/Project-Philicity/GS/hydrocarbon/se
 t-1/GS/mol_27_hc/mol_27_hc_cregen_best.xyz
 ----------------------------------------------------------------------
 Charge =  0 Multiplicity = 1

                         Standard orientation:
 ---------------------------------------------------------------------
 Center     Atomic      Atomic             Coordinates (Angstroms)
 Number     Number       Type             X           Y           Z
 ---------------------------------------------------------------------
      1          8           0        2.292692   -0.110777   -0.000009
      2          6           0        0.934338   -0.025976   -0.000003
      3          6           0        0.263913    1.191288    0.000004
      4          6           0       -1.123745    1.212972    0.000008
      5          6           0       -1.846459    0.029400    0.000008
      6          6           0       -1.166071   -1.182480    0.000000
      7          6           0        0.218364   -1.217376   -0.000005
      8          1           0        2.672986    0.772706   -0.000011
      9          1           0        0.827592    2.117878    0.000004
     10          1           0       -1.639258    2.164688    0.000013
     11          1           0       -2.927660    0.049518    0.000011
     12          1           0       -1.719256   -2.112935   -0.000002
     13          1           0        0.762021   -2.152610   -0.000011
 ---------------------------------------------------------------------

 SCF Done:  E(RM062X) =  -307.457308414     A.U. after    1 cycles

 The electronic state is 1-A.
 Alpha  occ. eigenvalues --  -19.65659 -10.60440 -10.54516 -10.54320 -10.54225
 Alpha  occ. eigenvalues --  -10.53628 -10.53447  -1.18930  -0.95957  -0.84907
 Alpha  occ. eigenvalues --   -0.83710  -0.71252  -0.68870  -0.62527  -0.57639
 Alpha  occ. eigenvalues --   -0.54339  -0.50844  -0.49754  -0.49253  -0.46640
 Alpha  occ. eigenvalues --   -0.42394  -0.41495  -0.40175  -0.31268  -0.28245
 Alpha virt. eigenvalues --    0.01990   0.03770   0.06061   0.08582   0.11108
 Alpha virt. eigenvalues --    0.12398   0.14244   0.15217   0.16763   0.19557
 Alpha virt. eigenvalues --    0.22254   0.23038   0.24274   0.24846   0.26129

 Mulliken charges:
               1
     1  O   -0.428941
     2  C    0.255552
     3  C   -0.213078
     4  C   -0.153191
     5  C   -0.172368
     6  C   -0.121644
     7  C   -0.200834
     8  H    0.320234
     9  H    0.135687
    10  H    0.143138
    11  H    0.140779
    12  H    0.142535
    13  H    0.152132
 Sum of Mulliken charges =  -0.00000

 Dipole moment (field-independent basis, Debye):
    X=             -0.0135    Y=              1.3414    Z=             -0.0000  Tot=              1.3415
 Quadrupole moment (field-independent basis, Debye-Ang):
   XX=            -37.4005   YY=            -35.5741   ZZ=            -45.1923
   XY=              4.4178   XZ=             -0.0000   YZ=              0.0000

  Exact polarizability:      86.998       1.156      79.076      -0.000       0.000      40.539
 Approx polarizability:     111.717       0.792     104.747      -0.000       0.000      54.081

                      1                      2                      3
                      A                      A                      A
 Frequencies --    233.2196               341.1043               412.1946
 Red. masses --      4.2906                 1.1104                 3.9607
 Frc consts  --      0.1375                 0.0761                 0.3965
 IR Inten    --      1.0234               106.4399                 9.9102

                      4                      5                      6
                      A                      A                      A
 Frequencies --    422.3677               519.4216               537.9238
 Red. masses --      2.9828                 2.6979                 7.1970
 Frc consts  --      0.3135                 0.4289                 1.2270
 IR Inten    --      0.4396                14.7750                 1.4988

                      7                      8                      9
                      A                      A                      A
 Frequencies --    632.2866               707.7898               777.9127
 Red. masses --      6.4075                 2.1382                 1.6601
 Frc consts  --      1.5093                 0.6311                 0.5919
 IR Inten    --      0.3563                26.7837                62.4904

                     10                     11                     12
                      A                      A                      A
 Frequencies --    842.0759               842.1528               913.7422
 Red. masses --      5.6890                 1.2540                 1.4865
 Frc consts  --      2.3768                 0.5240                 0.7313
 IR Inten    --     19.3508                 0.0071                 6.6798

                     13                     14                     15
                      A                      A                      A
 Frequencies --    977.5725               997.3716              1019.7257
 Red. masses --      1.3337                 1.2730                 5.6056
 Frc consts  --      0.7510                 0.7461                 3.4343
 IR Inten    --      0.0955                 0.1662                 0.7551

                     16                     17                     18
                      A                      A                      A
 Frequencies --   1057.9991              1104.4356              1170.6489
 Red. masses --      2.0107                 1.4714                 1.2158
 Frc consts  --      1.3261                 1.0574                 0.9817
 IR Inten    --      5.0030                11.3246                20.8345

                     19                     20                     21
                      A                      A                      A
 Frequencies --   1191.7827              1200.7021              1311.8203
 Red. masses --      1.1189                 1.2480                 3.6041
 Frc consts  --      0.9363                 1.0601                 3.6542
 IR Inten    --      1.1783               121.9539                93.5392

                     22                     23                     24
                      A                      A                      A
 Frequencies --   1339.8157              1369.3223              1516.9838
 Red. masses --      3.8862                 1.2967                 2.4118
 Frc consts  --      4.1102                 1.4325                 3.2700
 IR Inten    --     12.5181                28.4984                24.0532

                     25                     26                     27
                      A                      A                      A
 Frequencies --   1548.7344              1672.7869              1683.2714
 Red. masses --      2.6028                 6.2389                 6.1388
 Frc consts  --      3.6783                10.2858                10.2480
 IR Inten    --     70.3798                42.6029                47.9692

                     28                     29                     30
                      A                      A                      A
 Frequencies --   3188.8470              3207.9905              3216.5489
 Red. masses --      1.0890                 1.0867                 1.0916
 Frc consts  --      6.5243                 6.5893                 6.6544
 IR Inten    --      9.5370                 0.2132                 9.3377

                     31                     32                     33
                      A                      A                      A
 Frequencies --   3229.0619              3235.2269              3874.2928
 Red. masses --      1.0938                 1.0979                 1.0660
 Frc consts  --      6.7193                 6.7704                 9.4272
 IR Inten    --      7.9001                 3.1206                74.5889

 - Thermochemistry -
 -------------------
 Temperature   298.150 Kelvin.  Pressure   1.00000 Atm.
 Atom     1 has atomic number  8 and mass  15.99491

 Molecular mass:    94.04186 amu.
 Principal axes and moments of inertia in atomic units:
                           1         2         3
     Eigenvalues --   315.79150 682.59058 998.38207
           X            0.99979   0.02027   0.00000
           Y           -0.02027   0.99979  -0.00000
           Z           -0.00000   0.00000   1.00000
 This molecule is an asymmetric top.
 Rotational symmetry number  1.
 Rotational temperatures (Kelvin)      0.27428     0.12689     0.08675
 Rotational constants (GHZ):           5.71498     2.64396     1.80767
 Zero-point vibrational energy     276918.3 (Joules/Mol)
                                   66.18507 (Kcal/Mol)
 Warning -- explicit consideration of   6 degrees of freedom as
           vibrations may cause significant error
 Vibrational temperatures:    335.55   490.77   593.06   607.69   747.33
          (Kelvin)            773.95   909.72  1018.35  1119.24  1211.56
                             1211.67  1314.67  1406.51  1435.00  1467.16
                             1522.22  1589.04  1684.30  1714.71  1727.54
                             1887.42  1927.70  1970.15  2182.60  2228.28
                             2406.77  2421.85  4588.04  4615.58  4627.90
                             4645.90  4654.77  5574.24

 Zero-point correction=                           0.105473 (Hartree/Particle)
 Thermal correction to Energy=                    0.110964
 Thermal correction to Enthalpy=                  0.111908
 Thermal correction to Gibbs Free Energy=         0.076510
 Sum of electronic and zero-point Energies=           -307.351836
 Sum of electronic and thermal Energies=              -307.346345
 Sum of electronic and thermal Enthalpies=            -307.345401
 Sum of electronic and thermal Free Energies=         -307.380798

                     E (Thermal)             CV                S
                      KCal/Mol        Cal/Mol-Kelvin    Cal/Mol-Kelvin
 Total                   69.631             21.674             74.501
 Electronic               0.000              0.000              0.000
 Translational            0.889              2.981             39.535
 Rotational               0.889              2.981             26.867
 Vibrational             67.853             15.713              8.099
 Vibration     1          0.654              1.790              1.854
 Vibration     2          0.721              1.593              1.207
 Vibration     3          0.776              1.444              0.919
 Vibration     4          0.785              1.422              0.884
 Vibration     5          0.874              1.207              0.611
 Vibration     6          0.893              1.166              0.570

 Optimization completed.
    -- Stationary point found.
 Normal termination of Gaussian 16 at Mon Jun 20 19:04:12 2022.
