 Gaussian 16, Revision C.01,
 Gaussian 16:  AS64L-G16RevC.01  3-Jul-2019

 -------------------------
 # opt freq M062X/def2tzvp
 -------------------------

 converted from /home/svss/projects/Project-Philicity/GS/hydrocarbon/se
 t-1/GS/mol_32_hc/mol_32_hc_cregen_best.xyz
 ----------------------------------------------------------------------
 Symbolic Z-matrix:
 Charge =  0 Multiplicity = 1

 SCF Done:  E(RM062X) =  -534.378948591     A.U. after   14 cycles
 SCF Done:  E(RM062X) =  -534.379705642     A.U. after   12 cycles
 SCF Done:  E(RM062X) =  -534.379506474     A.U. after   13 cycles
 SCF Done:  E(RM062X) =  -534.380087203     A.U. after   12 cycles
 SCF Done:  E(RM062X) =  -534.380206090     A.U. after   11 cycles
 SCF Done:  E(RM062X) =  -534.380286633     A.U. after   11 cycles
 SCF Done:  E(RM062X) =  -534.380301918     A.U. after    9 cycles
 SCF Done:  E(RM062X) =  -534.380303202     A.U. after    9 cycles
 SCF Done:  E(RM062X) =  -534.380305633     A.U. after    8 cycles
 Optimization completed.
    -- Stationary point found.
 Normal termination of Gaussian 16 at Mon Jun 20 20:02:38 2022.

 --------------------------------------------------------------------
 #N Geom=AllCheck Guess=TCheck SCRF=Check GenChk RM062X/def2TZVP Freq
 --------------------------------------------------------------------

 ----------------------------------------------------------------------
 converted from /home/svss/projects/Project-Philicity/GS/hydrocarbon/se
 t-1/GS/mol_32_hc/mol_32_hc_cregen_best.xyz
 ----------------------------------------------------------------------
 Charge =  0 Multiplicity = 1

                         Standard orientation:
 ---------------------------------------------------------------------
 Center     Atomic      Atomic             Coordinates (Angstroms)
 Number     Number       Type             X           Y           Z
 ---------------------------------------------------------------------
      1          6           0       -2.378880    0.000016   -0.824217
      2          6           0       -1.124654    0.000005    0.015201
      3          6           0       -1.417472   -0.000019    1.505075
      4          8           0       -0.404998    1.174761   -0.349985
      5          6           0        0.913826    1.273133   -0.085491
      6          8           0        1.484166    2.307384   -0.230933
      7          6           0        1.592973   -0.000004    0.360478
      8          6           0        0.913813   -1.273139   -0.085486
      9          8           0        1.484154   -2.307388   -0.230943
     10          8           0       -0.404999   -1.174747   -0.350018
     11          1           0       -2.965165    0.889801   -0.602606
     12          1           0       -2.965172   -0.889769   -0.602620
     13          1           0       -2.106475    0.000023   -1.877699
     14          1           0       -1.993125    0.888454    1.759011
     15          1           0       -1.993118   -0.888504    1.758985
     16          1           0       -0.502342   -0.000022    2.096139
     17          1           0        2.617445   -0.000010   -0.001725
     18          1           0        1.643748   -0.000005    1.452178
 ---------------------------------------------------------------------

 SCF Done:  E(RM062X) =  -534.380305633     A.U. after    1 cycles

 The electronic state is 1-A.
 Alpha  occ. eigenvalues --  -19.69518 -19.69517 -19.63398 -19.63398 -10.69891
 Alpha  occ. eigenvalues --  -10.69890 -10.69611 -10.58920 -10.56441 -10.55444
 Alpha  occ. eigenvalues --   -1.28660  -1.24341  -1.18673  -1.15864  -0.93848
 Alpha  occ. eigenvalues --   -0.89774  -0.83084  -0.75875  -0.74862  -0.65886
 Alpha  occ. eigenvalues --   -0.63199  -0.61884  -0.59075  -0.55632  -0.55530
 Alpha  occ. eigenvalues --   -0.54931  -0.53039  -0.50595  -0.49926  -0.48694
 Alpha  occ. eigenvalues --   -0.48454  -0.47683  -0.45845  -0.44570  -0.40866
 Alpha  occ. eigenvalues --   -0.39803  -0.38387  -0.36405
 Alpha virt. eigenvalues --    0.01356   0.03411   0.04347   0.07730   0.09906
 Alpha virt. eigenvalues --    0.09928   0.10944   0.13112   0.13838   0.14349
 Alpha virt. eigenvalues --    0.15297   0.16386   0.17363   0.17497   0.18276

 Mulliken charges:
               1
     1  C   -0.374074
     2  C    0.184983
     3  C   -0.403062
     4  O   -0.213482
     5  C    0.308836
     6  O   -0.271199
     7  C   -0.414655
     8  C    0.308835
     9  O   -0.271201
    10  O   -0.213482
    11  H    0.154146
    12  H    0.154145
    13  H    0.161261
    14  H    0.171275
    15  H    0.171275
    16  H    0.145687
    17  H    0.198647
    18  H    0.202066
 Sum of Mulliken charges =  -0.00000

 Dipole moment (field-independent basis, Debye):
    X=             -2.8547    Y=             -0.0000    Z=              2.1905  Tot=              3.5983
 Quadrupole moment (field-independent basis, Debye-Ang):
   XX=            -54.5812   YY=            -76.6393   ZZ=            -54.4488
   XY=             -0.0000   XZ=              1.0588   YZ=             -0.0001

  Exact polarizability:      87.898      -0.000      81.617       0.571      -0.000      63.317
 Approx polarizability:      97.473      -0.000      99.550       0.480       0.000      77.775

                      1                      2                      3
                      A                      A                      A
 Frequencies --     80.8021                83.2831               164.3346
 Red. masses --      4.8563                 5.4379                 3.4890
 Frc consts  --      0.0187                 0.0222                 0.0555
 IR Inten    --      9.7156                 0.5974                 6.5810

                      4                      5                      6
                      A                      A                      A
 Frequencies --    207.0444               250.8281               299.7228
 Red. masses --      1.0214                 1.1767                 2.3486
 Frc consts  --      0.0258                 0.0436                 0.1243
 IR Inten    --      0.0161                 0.0499                 0.4049

                      7                      8                      9
                      A                      A                      A
 Frequencies --    344.4519               377.7024               408.2980
 Red. masses --      2.6962                 3.5594                 5.1283
 Frc consts  --      0.1885                 0.2992                 0.5037
 IR Inten    --      1.2435                 0.0301                10.9388

                     10                     11                     12
                      A                      A                      A
 Frequencies --    452.1340               480.0458               519.7441
 Red. masses --      3.1170                 8.2170                 4.5990
 Frc consts  --      0.3754                 1.1157                 0.7320
 IR Inten    --      8.3548                 2.6709                 3.5551

                     13                     14                     15
                      A                      A                      A
 Frequencies --    565.2613               606.3559               630.3714
 Red. masses --      2.7473                 3.8011                 4.9417
 Frc consts  --      0.5172                 0.8234                 1.1570
 IR Inten    --      3.8536                 0.8341                 3.4289

                     16                     17                     18
                      A                      A                      A
 Frequencies --    654.9609               863.9772               868.8308
 Red. masses --      5.1363                 7.8670                 2.4265
 Frc consts  --      1.2982                 3.4599                 1.0792
 IR Inten    --      7.4164                39.7048                 7.1178

                     19                     20                     21
                      A                      A                      A
 Frequencies --    921.9733               952.6914               975.9878
 Red. masses --      2.9716                 1.4668                 3.0296
 Frc consts  --      1.4883                 0.7844                 1.7003
 IR Inten    --      2.1200                 0.2010                 8.8868

                     22                     23                     24
                      A                      A                      A
 Frequencies --   1023.3544              1037.8658              1058.6722
 Red. masses --      1.3866                 3.1027                 2.7965
 Frc consts  --      0.8556                 1.9691                 1.8467
 IR Inten    --      3.6877                97.1416                25.8837

                     25                     26                     27
                      A                      A                      A
 Frequencies --   1127.9335              1204.7009              1256.8368
 Red. masses --      2.9749                 1.3427                 3.1042
 Frc consts  --      2.2299                 1.1482                 2.8891
 IR Inten    --    120.1828                13.7549                95.3463

                     28                     29                     30
                      A                      A                      A
 Frequencies --   1286.8341              1287.7454              1314.8074
 Red. masses --      3.0911                 2.3064                 2.4827
 Frc consts  --      3.0159                 2.2535                 2.5287
 IR Inten    --     13.2734                26.0534                13.6270

                     31                     32                     33
                      A                      A                      A
 Frequencies --   1357.8457              1416.4148              1427.8207
 Red. masses --      7.2900                 1.4103                 1.3025
 Frc consts  --      7.9191                 1.6671                 1.5645
 IR Inten    --    729.6765                23.2976                67.7234

                     34                     35                     36
                      A                      A                      A
 Frequencies --   1438.6306              1475.9999              1481.4215
 Red. masses --      1.0964                 1.0414                 1.0623
 Frc consts  --      1.3370                 1.3367                 1.3736
 IR Inten    --     14.5586                 0.1956                 3.3155

                     37                     38                     39
                      A                      A                      A
 Frequencies --   1501.7018              1502.3762              1888.8359
 Red. masses --      1.0849                 1.0562                12.1870
 Frc consts  --      1.4415                 1.4046                25.6173
 IR Inten    --      3.6335                 3.1906               616.6081

                     40                     41                     42
                      A                      A                      A
 Frequencies --   1911.9737              3085.4003              3091.8991
 Red. masses --     13.0142                 1.0389                 1.0359
 Frc consts  --     28.0305                 5.8270                 5.8346
 IR Inten    --    266.2568                 5.8799                 1.0583

                     43                     44                     45
                      A                      A                      A
 Frequencies --   3097.9971              3166.9728              3172.6298
 Red. masses --      1.0631                 1.1018                 1.1043
 Frc consts  --      6.0118                 6.5109                 6.5490
 IR Inten    --      3.3810                 9.7435                 0.4441

                     46                     47                     48
                      A                      A                      A
 Frequencies --   3176.9201              3180.6856              3180.8577
 Red. masses --      1.0945                 1.1044                 1.1039
 Frc consts  --      6.5086                 6.5829                 6.5806
 IR Inten    --      2.4510                 5.8675                 6.9977

 - Thermochemistry -
 -------------------
 Temperature   298.150 Kelvin.  Pressure   1.00000 Atm.
 Atom     1 has atomic number  6 and mass  12.00000

 Molecular mass:   144.04226 amu.
 Principal axes and moments of inertia in atomic units:
                           1         2         3
     Eigenvalues --  1129.181381188.038541891.17272
           X            0.99997  -0.00000   0.00753
           Y            0.00000   1.00000  -0.00000
           Z           -0.00753   0.00000   0.99997
 This molecule is an asymmetric top.
 Rotational symmetry number  1.
 Warning -- assumption of classical behavior for rotation
           may cause significant error
 Rotational temperatures (Kelvin)      0.07671     0.07290     0.04580
 Rotational constants (GHZ):           1.59827     1.51909     0.95430
 Zero-point vibrational energy     370028.5 (Joules/Mol)
                                   88.43894 (Kcal/Mol)
 Warning -- explicit consideration of  14 degrees of freedom as
           vibrations may cause significant error
 Vibrational temperatures:    116.26   119.83   236.44   297.89   360.89
          (Kelvin)            431.23   495.59   543.43   587.45   650.52
                              690.68   747.80   813.28   872.41   906.96
                              942.34  1243.07  1250.05  1326.51  1370.71
                             1404.23  1472.38  1493.26  1523.19  1622.84
                             1733.30  1808.31  1851.47  1852.78  1891.71
                             1953.64  2037.90  2054.32  2069.87  2123.63
                             2131.44  2160.61  2161.58  2717.61  2750.90
                             4439.20  4448.55  4457.33  4556.57  4564.71
                             4570.88  4576.30  4576.54

 Zero-point correction=                           0.140936 (Hartree/Particle)
 Thermal correction to Energy=                    0.150196
 Thermal correction to Enthalpy=                  0.151140
 Thermal correction to Gibbs Free Energy=         0.106593
 Sum of electronic and zero-point Energies=           -534.239369
 Sum of electronic and thermal Energies=              -534.230110
 Sum of electronic and thermal Enthalpies=            -534.229166
 Sum of electronic and thermal Free Energies=         -534.273712

                     E (Thermal)             CV                S
                      KCal/Mol        Cal/Mol-Kelvin    Cal/Mol-Kelvin
 Total                   94.249             34.705             93.756
 Electronic               0.000              0.000              0.000
 Translational            0.889              2.981             40.806
 Rotational               0.889              2.981             29.319
 Vibrational             92.472             28.744             23.632
 Vibration     1          0.600              1.962              3.871
 Vibration     2          0.600              1.961              3.812
 Vibration     3          0.623              1.886              2.499
 Vibration     4          0.641              1.830              2.070
 Vibration     5          0.663              1.761              1.725
 Vibration     6          0.692              1.674              1.418
 Vibration     7          0.723              1.587              1.191
 Vibration     8          0.748              1.518              1.048
 Vibration     9          0.773              1.452              0.933
 Vibration    10          0.811              1.356              0.789
 Vibration    11          0.836              1.294              0.710
 Vibration    12          0.875              1.206              0.611
 Vibration    13          0.921              1.106              0.513
 Vibration    14          0.965              1.018              0.439

 Optimization completed.
    -- Stationary point found.
 Normal termination of Gaussian 16 at Mon Jun 20 20:15:10 2022.
