 Gaussian 16, Revision C.01,
 Gaussian 16:  AS64L-G16RevC.01  3-Jul-2019

 -------------------------
 # opt freq M062X/def2tzvp
 -------------------------

 converted from /home/svss/projects/Project-Philicity/GS/hydrocarbon/se
 t-1/GS/mol_23_hc/mol_23_hc_cregen_best.xyz
 ----------------------------------------------------------------------
 Symbolic Z-matrix:
 Charge =  0 Multiplicity = 1

 SCF Done:  E(RM062X) =  -386.313766652     A.U. after   14 cycles
 SCF Done:  E(RM062X) =  -386.314214278     A.U. after   11 cycles
 SCF Done:  E(RM062X) =  -386.313998763     A.U. after   11 cycles
 SCF Done:  E(RM062X) =  -386.314337552     A.U. after   10 cycles
 SCF Done:  E(RM062X) =  -386.314371010     A.U. after   10 cycles
 SCF Done:  E(RM062X) =  -386.314402450     A.U. after   10 cycles
 SCF Done:  E(RM062X) =  -386.314445668     A.U. after   11 cycles
 SCF Done:  E(RM062X) =  -386.314523738     A.U. after   10 cycles
 SCF Done:  E(RM062X) =  -386.314636235     A.U. after   11 cycles
 SCF Done:  E(RM062X) =  -386.314654411     A.U. after   10 cycles
 SCF Done:  E(RM062X) =  -386.314655758     A.U. after   10 cycles
 SCF Done:  E(RM062X) =  -386.314656575     A.U. after    9 cycles
 SCF Done:  E(RM062X) =  -386.314656936     A.U. after    8 cycles
 SCF Done:  E(RM062X) =  -386.314656950     A.U. after    6 cycles
 Optimization completed.
    -- Stationary point found.
 Normal termination of Gaussian 16 at Mon Jun 20 18:39:45 2022.

 --------------------------------------------------------------------
 #N Geom=AllCheck Guess=TCheck SCRF=Check GenChk RM062X/def2TZVP Freq
 --------------------------------------------------------------------

 ----------------------------------------------------------------------
 converted from /home/svss/projects/Project-Philicity/GS/hydrocarbon/se
 t-1/GS/mol_23_hc/mol_23_hc_cregen_best.xyz
 ----------------------------------------------------------------------
 Charge =  0 Multiplicity = 1

                         Standard orientation:
 ---------------------------------------------------------------------
 Center     Atomic      Atomic             Coordinates (Angstroms)
 Number     Number       Type             X           Y           Z
 ---------------------------------------------------------------------
      1          6           0       -2.638484    0.775475   -0.000008
      2          6           0       -1.407402   -0.089787    0.000003
      3          8           0       -1.420769   -1.290858    0.000006
      4          8           0       -0.303058    0.665823   -0.000017
      5          6           0        1.024453    0.065129    0.000006
      6          6           0        1.229286   -0.759531    1.263695
      7          6           0        1.229202   -0.759972   -1.263418
      8          6           0        1.946016    1.275122   -0.000250
      9          1           0       -3.521764    0.144807    0.000319
     10          1           0       -2.632869    1.418763   -0.879321
     11          1           0       -2.632561    1.419333    0.878878
     12          1           0        1.004147   -0.156199    2.144483
     13          1           0        2.273723   -1.069596    1.320767
     14          1           0        0.599311   -1.645254    1.266295
     15          1           0        1.003321   -0.157129   -2.144352
     16          1           0        2.273801   -1.069424   -1.320824
     17          1           0        0.599725   -1.646048   -1.265411
     18          1           0        1.769579    1.886046   -0.885805
     19          1           0        2.986451    0.949764    0.000005
     20          1           0        1.769315    1.886593    0.884874
 ---------------------------------------------------------------------

 SCF Done:  E(RM062X) =  -386.314656950     A.U. after    1 cycles

 The electronic state is 1-A.
 Alpha  occ. eigenvalues --  -19.66195 -19.60861 -10.66837 -10.60723 -10.54135
 Alpha  occ. eigenvalues --  -10.52848 -10.52356 -10.52355  -1.22912  -1.13957
 Alpha  occ. eigenvalues --   -0.92169  -0.84039  -0.78977  -0.78838  -0.70968
 Alpha  occ. eigenvalues --   -0.60127  -0.57312  -0.56129  -0.55699  -0.51632
 Alpha  occ. eigenvalues --   -0.50577  -0.49247  -0.47695  -0.47201  -0.45312
 Alpha  occ. eigenvalues --   -0.44076  -0.43276  -0.42298  -0.41249  -0.39697
 Alpha  occ. eigenvalues --   -0.36651  -0.34279
 Alpha virt. eigenvalues --    0.05576   0.05850   0.09001   0.10535   0.11534
 Alpha virt. eigenvalues --    0.12167   0.13332   0.14337   0.14933   0.16289
 Alpha virt. eigenvalues --    0.16423   0.16947   0.18138   0.18415   0.19140

 Mulliken charges:
               1
     1  C   -0.457733
     2  C    0.412568
     3  O   -0.359535
     4  O   -0.265629
     5  C    0.103465
     6  C   -0.448711
     7  C   -0.448723
     8  C   -0.401816
     9  H    0.156595
    10  H    0.156665
    11  H    0.156665
    12  H    0.149561
    13  H    0.145726
    14  H    0.182406
    15  H    0.149576
    16  H    0.145718
    17  H    0.182406
    18  H    0.150521
    19  H    0.139747
    20  H    0.150529
 Sum of Mulliken charges =  -0.00000

 Dipole moment (field-independent basis, Debye):
    X=              0.8485    Y=              1.7149    Z=             -0.0000  Tot=              1.9133
 Quadrupole moment (field-independent basis, Debye-Ang):
   XX=            -46.1916   YY=            -53.9925   ZZ=            -49.2723
   XY=             -4.4234   XZ=              0.0002   YZ=             -0.0000

  Exact polarizability:      86.823      -0.299      76.188       0.000       0.000      69.326
 Approx polarizability:      91.253       0.954      95.353       0.000      -0.000      82.453

                      1                      2                      3
                      A                      A                      A
 Frequencies --     56.7908                94.3280               111.8896
 Red. masses --      1.2583                 2.3395                 2.4257
 Frc consts  --      0.0024                 0.0123                 0.0179
 IR Inten    --      1.7272                 2.1273                 0.8419

                      4                      5                      6
                      A                      A                      A
 Frequencies --    196.4494               199.6472               248.9044
 Red. masses --      3.6087                 1.1682                 1.0444
 Frc consts  --      0.0821                 0.0274                 0.0381
 IR Inten    --      5.4160                 0.0995                 0.0499

                      7                      8                      9
                      A                      A                      A
 Frequencies --    276.9338               318.2009               341.3898
 Red. masses --      1.0836                 2.6380                 2.9186
 Frc consts  --      0.0490                 0.1574                 0.2004
 IR Inten    --      0.0260                 3.0177                 2.8906

                     10                     11                     12
                      A                      A                      A
 Frequencies --    358.0617               433.3215               464.7441
 Red. masses --      2.4348                 2.6236                 2.7772
 Frc consts  --      0.1839                 0.2902                 0.3534
 IR Inten    --      1.2657                 1.5148                 2.3685

                     13                     14                     15
                      A                      A                      A
 Frequencies --    473.1166               621.7376               652.3311
 Red. masses --      2.4532                 2.6200                 3.7903
 Frc consts  --      0.3235                 0.5967                 0.9503
 IR Inten    --      4.8888                 7.9010                 4.3929

                     16                     17                     18
                      A                      A                      A
 Frequencies --    782.5438               883.0623               941.1832
 Red. masses --      4.0429                 2.7301                 1.5738
 Frc consts  --      1.4587                 1.2543                 0.8214
 IR Inten    --      6.2554                12.3610                 0.3736

                     19                     20                     21
                      A                      A                      A
 Frequencies --    941.2250               970.7981               980.4522
 Red. masses --      1.5696                 1.1997                 3.5388
 Frc consts  --      0.8193                 0.6662                 2.0043
 IR Inten    --      0.1257                 0.0819                 3.6037

                     22                     23                     24
                      A                      A                      A
 Frequencies --   1052.3366              1056.5049              1066.2773
 Red. masses --      1.8054                 1.4119                 1.5001
 Frc consts  --      1.1780                 0.9285                 1.0049
 IR Inten    --     49.6207                 0.2740                 2.4693

                     25                     26                     27
                      A                      A                      A
 Frequencies --   1071.9663              1225.5665              1284.8794
 Red. masses --      1.8563                 2.5491                 2.6253
 Frc consts  --      1.2568                 2.2558                 2.5536
 IR Inten    --      5.9879               223.7006                11.7510

                     28                     29                     30
                      A                      A                      A
 Frequencies --   1297.7065              1315.7480              1400.7330
 Red. masses --      2.6803                 3.0464                 1.3731
 Frc consts  --      2.6594                 3.1073                 1.5873
 IR Inten    --     24.7376               256.5619                39.9614

                     31                     32                     33
                      A                      A                      A
 Frequencies --   1401.5625              1409.0008              1427.7165
 Red. masses --      1.3391                 1.5665                 1.2489
 Frc consts  --      1.5498                 1.8323                 1.4999
 IR Inten    --     24.6054                98.2092                19.7585

                     34                     35                     36
                      A                      A                      A
 Frequencies --   1469.4056              1472.7548              1479.0536
 Red. masses --      1.0446                 1.0510                 1.0453
 Frc consts  --      1.3288                 1.3432                 1.3473
 IR Inten    --      0.3006                14.8209                 9.0282

                     37                     38                     39
                      A                      A                      A
 Frequencies --   1489.0002              1489.7910              1497.7219
 Red. masses --      1.0453                 1.0533                 1.0748
 Frc consts  --      1.3655                 1.3773                 1.4205
 IR Inten    --      0.9372                 0.7144                10.2585

                     40                     41                     42
                      A                      A                      A
 Frequencies --   1505.1097              1526.9776              1841.9230
 Red. masses --      1.0602                 1.0604                11.2900
 Frc consts  --      1.4151                 1.4567                22.5678
 IR Inten    --      1.6512                14.5341               264.3596

                     43                     44                     45
                      A                      A                      A
 Frequencies --   3069.2919              3069.7145              3075.3994
 Red. masses --      1.0352                 1.0371                 1.0373
 Frc consts  --      5.7459                 5.7580                 5.7804
 IR Inten    --      6.9423                20.7670                13.6697

                     46                     47                     48
                      A                      A                      A
 Frequencies --   3088.4220              3138.0666              3139.7953
 Red. masses --      1.0359                 1.1023                 1.1021
 Frc consts  --      5.8215                 6.3956                 6.4015
 IR Inten    --      1.1157                 4.9742                13.8004

                     49                     50                     51
                      A                      A                      A
 Frequencies --   3149.8294              3154.5969              3158.3155
 Red. masses --      1.1032                 1.1024                 1.1004
 Frc consts  --      6.4488                 6.4637                 6.4669
 IR Inten    --     20.1469                27.1983                 2.4475

                     52                     53                     54
                      A                      A                      A
 Frequencies --   3177.2386              3179.3658              3200.2026
 Red. masses --      1.1009                 1.1004                 1.1044
 Frc consts  --      6.5476                 6.5537                 6.6637
 IR Inten    --      0.1679                 7.9165                 4.0184

 - Thermochemistry -
 -------------------
 Temperature   298.150 Kelvin.  Pressure   1.00000 Atm.
 Atom     1 has atomic number  6 and mass  12.00000

 Molecular mass:   116.08373 amu.
 Principal axes and moments of inertia in atomic units:
                           1         2         3
     Eigenvalues --   541.844161241.597511372.97920
           X            0.99961  -0.02797   0.00000
           Y            0.02797   0.99961   0.00000
           Z           -0.00000  -0.00000   1.00000
 This molecule is an asymmetric top.
 Rotational symmetry number  1.
 Warning -- assumption of classical behavior for rotation
           may cause significant error
 Rotational temperatures (Kelvin)      0.15985     0.06976     0.06308
 Rotational constants (GHZ):           3.33074     1.45356     1.31447
 Zero-point vibrational energy     458941.8 (Joules/Mol)
                                  109.68973 (Kcal/Mol)
 Warning -- explicit consideration of  13 degrees of freedom as
           vibrations may cause significant error
 Vibrational temperatures:     81.71   135.72   160.98   282.65   287.25
          (Kelvin)            358.12   398.45   457.82   491.18   515.17
                              623.45   668.66   680.71   894.54   938.56
                             1125.91  1270.53  1354.15  1354.21  1396.76
                             1410.65  1514.08  1520.07  1534.14  1542.32
                             1763.32  1848.65  1867.11  1893.07  2015.34
                             2016.54  2027.24  2054.17  2114.15  2118.97
                             2128.03  2142.34  2143.48  2154.89  2165.52
                             2196.98  2650.12  4416.03  4416.63  4424.81
                             4443.55  4514.98  4517.47  4531.90  4538.76
                             4544.11  4571.34  4574.40  4604.38

 Zero-point correction=                           0.174802 (Hartree/Particle)
 Thermal correction to Energy=                    0.184706
 Thermal correction to Enthalpy=                  0.185650
 Thermal correction to Gibbs Free Energy=         0.140226
 Sum of electronic and zero-point Energies=           -386.139855
 Sum of electronic and thermal Energies=              -386.129951
 Sum of electronic and thermal Enthalpies=            -386.129007
 Sum of electronic and thermal Free Energies=         -386.174431

                     E (Thermal)             CV                S
                      KCal/Mol        Cal/Mol-Kelvin    Cal/Mol-Kelvin
 Total                  115.904             35.579             95.602
 Electronic               0.000              0.000              0.000
 Translational            0.889              2.981             40.163
 Rotational               0.889              2.981             28.315
 Vibrational            114.127             29.617             27.125
 Vibration     1          0.596              1.975              4.566
 Vibration     2          0.603              1.953              3.568
 Vibration     3          0.607              1.940              3.236
 Vibration     4          0.636              1.845              2.166
 Vibration     5          0.638              1.840              2.136
 Vibration     6          0.662              1.765              1.738
 Vibration     7          0.678              1.716              1.553
 Vibration     8          0.705              1.639              1.319
 Vibration     9          0.721              1.593              1.206
 Vibration    10          0.733              1.559              1.131
 Vibration    11          0.794              1.398              0.848
 Vibration    12          0.822              1.328              0.752
 Vibration    13          0.830              1.310              0.729

 Optimization completed.
    -- Stationary point found.
 Normal termination of Gaussian 16 at Mon Jun 20 18:50:25 2022.
