 Gaussian 16, Revision C.01,
 Gaussian 16:  AS64L-G16RevC.01  3-Jul-2019

 -------------------------
 # opt freq M062X/def2tzvp
 -------------------------

 converted from /home/svss/projects/Project-Philicity/GS/hydrocarbon/se
 t-1/GS/mol_6_hc/mol_6_hc_cregen_best.xyz
 ----------------------------------------------------------------------
 Symbolic Z-matrix:
 Charge =  0 Multiplicity = 1

 SCF Done:  E(RM062X) =  -386.060044963     A.U. after   15 cycles
 SCF Done:  E(RM062X) =  -386.060348356     A.U. after   12 cycles
 SCF Done:  E(RM062X) =  -386.060422214     A.U. after   11 cycles
 SCF Done:  E(RM062X) =  -386.060428407     A.U. after    8 cycles
 Optimization completed.
    -- Stationary point found.
 Normal termination of Gaussian 16 at Mon Jun 20 16:23:27 2022.

 --------------------------------------------------------------------
 #N Geom=AllCheck Guess=TCheck SCRF=Check GenChk RM062X/def2TZVP Freq
 --------------------------------------------------------------------

 ----------------------------------------------------------------------
 converted from /home/svss/projects/Project-Philicity/GS/hydrocarbon/se
 t-1/GS/mol_6_hc/mol_6_hc_cregen_best.xyz
 ----------------------------------------------------------------------
 Charge =  0 Multiplicity = 1

                         Standard orientation:
 ---------------------------------------------------------------------
 Center     Atomic      Atomic             Coordinates (Angstroms)
 Number     Number       Type             X           Y           Z
 ---------------------------------------------------------------------
      1          6           0        3.193562   -0.507745   -0.000247
      2          8           0        2.290269    0.571967    0.000265
      3          6           0        0.962699    0.281862    0.000139
      4          6           0        0.438517   -1.003407    0.000053
      5          6           0       -0.943827   -1.179562   -0.000093
      6          6           0       -1.818699   -0.105771   -0.000149
      7          6           0       -3.310227   -0.299565    0.000148
      8          6           0       -1.267504    1.178460   -0.000115
      9          6           0        0.097341    1.376510    0.000035
     10          1           0        4.189424   -0.072668   -0.000424
     11          1           0        3.069569   -1.129416    0.891032
     12          1           0        3.069053   -1.128991   -0.891749
     13          1           0        1.083047   -1.870367    0.000045
     14          1           0       -1.340661   -2.188171   -0.000225
     15          1           0       -3.568276   -1.357838   -0.004508
     16          1           0       -3.765494    0.154363    0.882306
     17          1           0       -3.766928    0.162551   -0.876969
     18          1           0       -1.926970    2.039217   -0.000263
     19          1           0        0.523912    2.370894    0.000004
 ---------------------------------------------------------------------

 SCF Done:  E(RM062X) =  -386.060428407     A.U. after    1 cycles

 The electronic state is 1-A.
 Alpha  occ. eigenvalues --  -19.65284 -10.59601 -10.58784 -10.53890 -10.53673
 Alpha  occ. eigenvalues --  -10.53599 -10.53537 -10.53246 -10.52812  -1.19190
 Alpha  occ. eigenvalues --   -0.95997  -0.87136  -0.84419  -0.80878  -0.75401
 Alpha  occ. eigenvalues --   -0.69406  -0.65850  -0.60998  -0.56189  -0.55096
 Alpha  occ. eigenvalues --   -0.53324  -0.51036  -0.49120  -0.48648  -0.48498
 Alpha  occ. eigenvalues --   -0.44675  -0.44119  -0.42193  -0.41139  -0.38614
 Alpha  occ. eigenvalues --   -0.38274  -0.30708  -0.26847
 Alpha virt. eigenvalues --    0.02322   0.04207   0.07488   0.08174   0.10251
 Alpha virt. eigenvalues --    0.11052   0.12377   0.13568   0.14578   0.14980
 Alpha virt. eigenvalues --    0.15732   0.15769   0.16948   0.19009   0.19833

 Mulliken charges:
               1
     1  C   -0.295973
     2  O   -0.284021
     3  C    0.280422
     4  C   -0.251530
     5  C   -0.186884
     6  C    0.093693
     7  C   -0.479291
     8  C   -0.155418
     9  C   -0.197829
    10  H    0.151912
    11  H    0.147333
    12  H    0.147340
    13  H    0.155643
    14  H    0.139875
    15  H    0.135698
    16  H    0.153155
    17  H    0.153046
    18  H    0.144016
    19  H    0.148814
 Sum of Mulliken charges =  -0.00000

 Dipole moment (field-independent basis, Debye):
    X=              0.2478    Y=             -1.0854    Z=             -0.0002  Tot=              1.1133
 Quadrupole moment (field-independent basis, Debye-Ang):
   XX=            -46.8231   YY=            -50.9109   ZZ=            -57.7042
   XY=             -3.6894   XZ=             -0.0025   YZ=             -0.0004

  Exact polarizability:     130.560      -1.508      95.862      -0.006      -0.001      60.539
 Approx polarizability:     144.515      -0.257     130.983      -0.004      -0.000      80.937

                      1                      2                      3
                      A                      A                      A
 Frequencies --     68.9479                88.5478               155.1631
 Red. masses --      1.0770                 2.7991                 3.5033
 Frc consts  --      0.0030                 0.0129                 0.0497
 IR Inten    --      0.4726                 3.2664                 0.3891

                      4                      5                      6
                      A                      A                      A
 Frequencies --    239.9341               272.8766               348.5983
 Red. masses --      2.9929                 1.1521                 2.7946
 Frc consts  --      0.1015                 0.0505                 0.2001
 IR Inten    --      1.8440                 0.1923                 1.1558

                      7                      8                      9
                      A                      A                      A
 Frequencies --    350.6119               428.9782               430.2365
 Red. masses --      3.2956                 3.0141                 4.7588
 Frc consts  --      0.2387                 0.3268                 0.5190
 IR Inten    --      3.7392                 0.1138                 1.4845

                     10                     11                     12
                      A                      A                      A
 Frequencies --    529.0988               533.5332               654.1327
 Red. masses --      2.4056                 4.0094                 6.7477
 Frc consts  --      0.3968                 0.6724                 1.7011
 IR Inten    --     15.9721                 4.9545                 0.1713

                     13                     14                     15
                      A                      A                      A
 Frequencies --    732.3655               742.1531               842.8058
 Red. masses --      2.8844                 4.3042                 1.3551
 Frc consts  --      0.9115                 1.3968                 0.5671
 IR Inten    --      0.9802                11.9662                22.5707

                     16                     17                     18
                      A                      A                      A
 Frequencies --    854.9777               858.4321               957.2323
 Red. masses --      5.3855                 1.4623                 1.3279
 Frc consts  --      2.3194                 0.6349                 0.7169
 IR Inten    --      4.3293                33.5506                 0.7313

                     19                     20                     21
                      A                      A                      A
 Frequencies --    987.6885              1009.7699              1037.9493
 Red. masses --      1.3245                 1.4236                 2.5764
 Frc consts  --      0.7613                 0.8552                 1.6354
 IR Inten    --      0.4761                 3.7550                 1.3042

                     22                     23                     24
                      A                      A                      A
 Frequencies --   1069.8872              1116.1859              1140.9079
 Red. masses --      1.5272                 5.2805                 1.2675
 Frc consts  --      1.0299                 3.8761                 0.9721
 IR Inten    --      2.6943                44.4052                 8.4068

                     25                     26                     27
                      A                      A                      A
 Frequencies --   1186.8916              1206.0519              1218.0276
 Red. masses --      1.2800                 1.1511                 1.4104
 Frc consts  --      1.0624                 0.9865                 1.2328
 IR Inten    --      1.0461                10.5960                 7.7984

                     28                     29                     30
                      A                      A                      A
 Frequencies --   1247.5116              1296.9200              1338.2149
 Red. masses --      2.8008                 4.9037                 1.4346
 Frc consts  --      2.5681                 4.8596                 1.5137
 IR Inten    --      0.5242               144.2934                26.0373

                     31                     32                     33
                      A                      A                      A
 Frequencies --   1349.7450              1416.9315              1460.6482
 Red. masses --      4.2070                 1.2758                 2.4537
 Frc consts  --      4.5157                 1.5091                 3.0843
 IR Inten    --    110.4107                 0.3602                 5.4787

                     34                     35                     36
                      A                      A                      A
 Frequencies --   1484.6087              1488.3979              1503.9620
 Red. masses --      1.1917                 1.0425                 1.1672
 Frc consts  --      1.5475                 1.3607                 1.5555
 IR Inten    --      6.3131                 6.5872                 8.6815

                     37                     38                     39
                      A                      A                      A
 Frequencies --   1504.5938              1517.7780              1569.6566
 Red. masses --      1.0438                 1.0628                 2.8243
 Frc consts  --      1.3922                 1.4425                 4.0999
 IR Inten    --      8.4986                26.9148               163.2931

                     40                     41                     42
                      A                      A                      A
 Frequencies --   1656.0107              1695.0264              3038.7687
 Red. masses --      6.5970                 6.3663                 1.0349
 Frc consts  --     10.6592                10.7769                 5.6305
 IR Inten    --     17.2423                36.9368                42.8445

                     43                     44                     45
                      A                      A                      A
 Frequencies --   3061.1410              3099.5508              3118.4672
 Red. masses --      1.0368                 1.1055                 1.1011
 Frc consts  --      5.7244                 6.2576                 6.3090
 IR Inten    --     28.2596                29.7021                11.5325

                     46                     47                     48
                      A                      A                      A
 Frequencies --   3147.1356              3168.6931              3188.0286
 Red. masses --      1.1011                 1.0999                 1.0893
 Frc consts  --      6.4257                 6.5067                 6.5229
 IR Inten    --     11.9563                18.7582                 9.4216

                     49                     50                     51
                      A                      A                      A
 Frequencies --   3194.3418              3222.8084              3239.3604
 Red. masses --      1.0897                 1.0936                 1.0916
 Frc consts  --      6.5511                 6.6926                 6.7488
 IR Inten    --     11.0390                 2.4761                 4.3435

 - Thermochemistry -
 -------------------
 Temperature   298.150 Kelvin.  Pressure   1.00000 Atm.
 Atom     1 has atomic number  6 and mass  12.00000

 Molecular mass:   122.07317 amu.
 Principal axes and moments of inertia in atomic units:
                           1         2         3
     Eigenvalues --   372.757831818.651012168.83070
           X            0.99992  -0.01298   0.00001
           Y            0.01298   0.99992  -0.00004
           Z           -0.00001   0.00004   1.00000
 This molecule is an asymmetric top.
 Rotational symmetry number  1.
 Rotational temperatures (Kelvin)      0.23236     0.04763     0.03994
 Rotational constants (GHZ):           4.84159     0.99235     0.83213
 Zero-point vibrational energy     425094.7 (Joules/Mol)
                                  101.60007 (Kcal/Mol)
 Warning -- explicit consideration of  11 degrees of freedom as
           vibrations may cause significant error
 Vibrational temperatures:     99.20   127.40   223.25   345.21   392.61
          (Kelvin)            501.56   504.45   617.20   619.01   761.26
                              767.64   941.15  1053.71  1067.79  1212.61
                             1230.12  1235.09  1377.24  1421.06  1452.83
                             1493.38  1539.33  1605.94  1641.51  1707.67
                             1735.24  1752.47  1794.89  1865.98  1925.39
                             1941.98  2038.65  2101.55  2136.02  2141.47
                             2163.87  2164.77  2183.74  2258.39  2382.63
                             2438.76  4372.11  4404.30  4459.56  4486.78
                             4528.03  4559.04  4586.86  4595.95  4636.90
                             4660.72

 Zero-point correction=                           0.161910 (Hartree/Particle)
 Thermal correction to Energy=                    0.170461
 Thermal correction to Enthalpy=                  0.171405
 Thermal correction to Gibbs Free Energy=         0.128415
 Sum of electronic and zero-point Energies=           -385.898518
 Sum of electronic and thermal Energies=              -385.889967
 Sum of electronic and thermal Enthalpies=            -385.889023
 Sum of electronic and thermal Free Energies=         -385.932013

                     E (Thermal)             CV                S
                      KCal/Mol        Cal/Mol-Kelvin    Cal/Mol-Kelvin
 Total                  106.966             31.989             90.480
 Electronic               0.000              0.000              0.000
 Translational            0.889              2.981             40.313
 Rotational               0.889              2.981             28.777
 Vibrational            105.188             26.027             21.391
 Vibration     1          0.598              1.969              4.183
 Vibration     2          0.601              1.957              3.692
 Vibration     3          0.620              1.897              2.608
 Vibration     4          0.657              1.779              1.803
 Vibration     5          0.676              1.723              1.578
 Vibration     6          0.726              1.578              1.173
 Vibration     7          0.728              1.574              1.163
 Vibration     8          0.790              1.407              0.862
 Vibration     9          0.791              1.404              0.858
 Vibration    10          0.884              1.186              0.589
 Vibration    11          0.889              1.176              0.579

                           ! Non-Optimized Parameters !
 Normal termination of Gaussian 16 at Mon Jun 20 16:34:18 2022.
