 Gaussian 16, Revision C.01,
 Gaussian 16:  AS64L-G16RevC.01  3-Jul-2019

 -------------------------
 # opt freq M062X/def2tzvp
 -------------------------

 converted from /home/svss/projects/Project-Philicity/GS/hydrocarbon/se
 t-1/GS/mol_24_hc/mol_24_hc_cregen_best.xyz
 ----------------------------------------------------------------------
 Symbolic Z-matrix:
 Charge =  0 Multiplicity = 1

 SCF Done:  E(RM062X) =  -132.746569866     A.U. after   13 cycles
 SCF Done:  E(RM062X) =  -132.746894626     A.U. after   10 cycles
 SCF Done:  E(RM062X) =  -132.746900391     A.U. after    7 cycles
 Optimization completed.
    -- Stationary point found.
 Normal termination of Gaussian 16 at Mon Jun 20 18:51:11 2022.

 --------------------------------------------------------------------
 #N Geom=AllCheck Guess=TCheck SCRF=Check GenChk RM062X/def2TZVP Freq
 --------------------------------------------------------------------

 ----------------------------------------------------------------------
 converted from /home/svss/projects/Project-Philicity/GS/hydrocarbon/se
 t-1/GS/mol_24_hc/mol_24_hc_cregen_best.xyz
 ----------------------------------------------------------------------
 Charge =  0 Multiplicity = 1

                         Standard orientation:
 ---------------------------------------------------------------------
 Center     Atomic      Atomic             Coordinates (Angstroms)
 Number     Number       Type             X           Y           Z
 ---------------------------------------------------------------------
      1          6           0       -1.174912    0.000001    0.000014
      2          6           0        0.282059   -0.000002   -0.000067
      3          7           0        1.427361    0.000000    0.000034
      4          1           0       -1.544790    0.964305   -0.343637
      5          1           0       -1.544812   -0.779775   -0.663240
      6          1           0       -1.544809   -0.184523    1.006957
 ---------------------------------------------------------------------

 SCF Done:  E(RM062X) =  -132.746900391     A.U. after    1 cycles

 The electronic state is 1-A.
 Alpha  occ. eigenvalues --  -14.74935 -10.59023 -10.57805  -1.01971  -0.87475
 Alpha  occ. eigenvalues --   -0.58883  -0.53835  -0.53834  -0.44215  -0.40054
 Alpha  occ. eigenvalues --   -0.40054
 Alpha virt. eigenvalues --    0.05332   0.07392   0.07393   0.13892   0.14103
 Alpha virt. eigenvalues --    0.14103   0.17393   0.23720   0.23721   0.29315
 Alpha virt. eigenvalues --    0.29315   0.31257   0.39693   0.40412   0.47181

 Mulliken charges:
               1
     1  C   -0.388100
     2  C   -0.162752
     3  N    0.021200
     4  H    0.176548
     5  H    0.176549
     6  H    0.176555
 Sum of Mulliken charges =  -0.00000

 Dipole moment (field-independent basis, Debye):
    X=             -3.9993    Y=             -0.0000    Z=             -0.0000  Tot=              3.9993
 Quadrupole moment (field-independent basis, Debye-Ang):
   XX=            -20.7219   YY=            -17.6438   ZZ=            -17.6439
   XY=              0.0000   XZ=             -0.0002   YZ=              0.0000

  Exact polarizability:      37.475       0.001      21.499      -0.007       0.005      21.505
 Approx polarizability:      46.181       0.000      25.222       0.002       0.000      25.222

                      1                      2                      3
                      A                      A                      A
 Frequencies --    390.1989               390.6592               944.5649
 Red. masses --      3.7463                 3.7513                 4.3881
 Frc consts  --      0.3361                 0.3373                 2.3067
 IR Inten    --      0.6021                 0.6043                 1.9668

                      4                      5                      6
                      A                      A                      A
 Frequencies --   1062.6313              1062.9597              1410.2689
 Red. masses --      1.4533                 1.4528                 1.2474
 Frc consts  --      0.9669                 0.9671                 1.4618
 IR Inten    --      2.0543                 2.0577                 2.0336

                      7                      8                      9
                      A                      A                      A
 Frequencies --   1478.4007              1478.9883              2430.9353
 Red. masses --      1.0380                 1.0380                12.5925
 Frc consts  --      1.3367                 1.3378                43.8438
 IR Inten    --     11.2705                11.3302                10.9779

                     10                     11                     12
                      A                      A                      A
 Frequencies --   3089.2821              3168.2850              3169.5805
 Red. masses --      1.0337                 1.1027                 1.1028
 Frc consts  --      5.8127                 6.5218                 6.5275
 IR Inten    --      1.1573                 0.0347                 0.0264

 - Thermochemistry -
 -------------------
 Temperature   298.150 Kelvin.  Pressure   1.00000 Atm.
 Atom     1 has atomic number  6 and mass  12.00000

 Molecular mass:    41.02655 amu.
 Principal axes and moments of inertia in atomic units:
                           1         2         3
     Eigenvalues --    11.31500 194.02368 194.02385
           X            1.00000   0.00000  -0.00000
           Y           -0.00000   1.00000  -0.00002
           Z            0.00000   0.00002   1.00000
 This molecule is an asymmetric top.
 Rotational symmetry number  1.
 Rotational temperatures (Kelvin)      7.65479     0.44641     0.44641
 Rotational constants (GHZ):         159.49990     9.30165     9.30165
 Zero-point vibrational energy     120085.7 (Joules/Mol)
                                   28.70116 (Kcal/Mol)
 Warning -- explicit consideration of   2 degrees of freedom as
           vibrations may cause significant error
 Vibrational temperatures:    561.41   562.07  1359.02  1528.89  1529.36
          (Kelvin)           2029.06  2127.09  2127.93  3497.57  4444.79
                             4558.46  4560.32

 Zero-point correction=                           0.045738 (Hartree/Particle)
 Thermal correction to Energy=                    0.049330
 Thermal correction to Enthalpy=                  0.050274
 Thermal correction to Gibbs Free Energy=         0.021744
 Sum of electronic and zero-point Energies=           -132.701162
 Sum of electronic and thermal Energies=              -132.697571
 Sum of electronic and thermal Enthalpies=            -132.696627
 Sum of electronic and thermal Free Energies=         -132.725157

                     E (Thermal)             CV                S
                      KCal/Mol        Cal/Mol-Kelvin    Cal/Mol-Kelvin
 Total                   30.955             10.278             60.046
 Electronic               0.000              0.000              0.000
 Translational            0.889              2.981             37.062
 Rotational               0.889              2.981             20.682
 Vibrational             29.177              4.316              2.302
 Vibration     1          0.758              1.491              0.999
 Vibration     2          0.758              1.490              0.998

 Optimization completed.
    -- Stationary point found.
 Normal termination of Gaussian 16 at Mon Jun 20 18:51:32 2022.
