 Gaussian 16, Revision C.01,
 Gaussian 16:  AS64L-G16RevC.01  3-Jul-2019

 -------------------------
 # opt freq M062X/def2tzvp
 -------------------------

 converted from /home/svss/projects/Project-Philicity/GS/hydrocarbon/se
 t-1/GS/mol_14_hc/mol_14_hc_cregen_best.xyz
 ----------------------------------------------------------------------
 Symbolic Z-matrix:
 Charge =  0 Multiplicity = 1

 SCF Done:  E(RM062X) =  -346.750409238     A.U. after   14 cycles
 SCF Done:  E(RM062X) =  -346.750623154     A.U. after   11 cycles
 SCF Done:  E(RM062X) =  -346.750698966     A.U. after   10 cycles
 SCF Done:  E(RM062X) =  -346.750702156     A.U. after    7 cycles
 Optimization completed.
    -- Stationary point found.
 Normal termination of Gaussian 16 at Mon Jun 20 17:30:51 2022.

 --------------------------------------------------------------------
 #N Geom=AllCheck Guess=TCheck SCRF=Check GenChk RM062X/def2TZVP Freq
 --------------------------------------------------------------------

 ----------------------------------------------------------------------
 converted from /home/svss/projects/Project-Philicity/GS/hydrocarbon/se
 t-1/GS/mol_14_hc/mol_14_hc_cregen_best.xyz
 ----------------------------------------------------------------------
 Charge =  0 Multiplicity = 1

                         Standard orientation:
 ---------------------------------------------------------------------
 Center     Atomic      Atomic             Coordinates (Angstroms)
 Number     Number       Type             X           Y           Z
 ---------------------------------------------------------------------
      1          6           0        2.742831    0.325982   -0.000059
      2          8           0        1.750567   -0.673563    0.000012
      3          6           0        0.452576   -0.276275   -0.000010
      4          6           0       -0.496782   -1.298286   -0.000101
      5          6           0       -1.843186   -0.990188   -0.000071
      6          6           0       -2.265812    0.336192    0.000033
      7          6           0       -1.319475    1.345309    0.000114
      8          6           0        0.041188    1.052234    0.000099
      9          1           0        2.671931    0.955368   -0.891511
     10          1           0        2.672255    0.955202    0.891534
     11          1           0        3.697586   -0.192931   -0.000271
     12          1           0       -0.149275   -2.322799   -0.000181
     13          1           0       -2.571327   -1.791176   -0.000137
     14          1           0       -3.320561    0.574774    0.000047
     15          1           0       -1.632814    2.381492    0.000207
     16          1           0        0.759625    1.858771    0.000188
 ---------------------------------------------------------------------

 SCF Done:  E(RM062X) =  -346.750702156     A.U. after    1 cycles

 The electronic state is 1-A.
 Alpha  occ. eigenvalues --  -19.65585 -10.60057 -10.59003 -10.54170 -10.54046
 Alpha  occ. eigenvalues --  -10.53815 -10.53411 -10.53209  -1.19515  -0.95839
 Alpha  occ. eigenvalues --   -0.85590  -0.84375  -0.78858  -0.69480  -0.67357
 Alpha  occ. eigenvalues --   -0.61583  -0.55808  -0.55629  -0.55349  -0.51592
 Alpha  occ. eigenvalues --   -0.49060  -0.47978  -0.45138  -0.43218  -0.42004
 Alpha  occ. eigenvalues --   -0.39367  -0.39049  -0.30972  -0.27772
 Alpha virt. eigenvalues --    0.02253   0.03919   0.07392   0.09116   0.10837
 Alpha virt. eigenvalues --    0.11949   0.13086   0.13713   0.15047   0.15159
 Alpha virt. eigenvalues --    0.16231   0.18549   0.20089   0.23188   0.23529

 Mulliken charges:
               1
     1  C   -0.296378
     2  O   -0.282065
     3  C    0.298105
     4  C   -0.209590
     5  C   -0.118736
     6  C   -0.174737
     7  C   -0.146827
     8  C   -0.250688
     9  H    0.148527
    10  H    0.148532
    11  H    0.152667
    12  H    0.150469
    13  H    0.141425
    14  H    0.139618
    15  H    0.141795
    16  H    0.157884
 Sum of Mulliken charges =  -0.00000

 Dipole moment (field-independent basis, Debye):
    X=              0.7118    Y=              1.0505    Z=             -0.0001  Tot=              1.2690
 Quadrupole moment (field-independent basis, Debye-Ang):
   XX=            -40.6619   YY=            -44.4246   ZZ=            -51.4644
   XY=              2.8907   XZ=             -0.0002   YZ=              0.0007

  Exact polarizability:     107.919       0.830      86.991      -0.000       0.003      51.079
 Approx polarizability:     126.930      -0.962     117.470       0.000       0.004      67.802

                      1                      2                      3
                      A                      A                      A
 Frequencies --     94.3235               221.1778               274.1789
 Red. masses --      3.1356                 2.2940                 3.0633
 Frc consts  --      0.0164                 0.0661                 0.1357
 IR Inten    --      4.2239                 0.2610                 2.4469

                      4                      5                      6
                      A                      A                      A
 Frequencies --    296.2667               426.4015               454.2849
 Red. masses --      1.3546                 2.9879                 4.6655
 Frc consts  --      0.0701                 0.3201                 0.5673
 IR Inten    --      0.1814                 0.0029                 0.6349

                      7                      8                      9
                      A                      A                      A
 Frequencies --    525.6616               564.0024               628.3734
 Red. masses --      2.7549                 4.9428                 6.3901
 Frc consts  --      0.4485                 0.9264                 1.4866
 IR Inten    --     10.7281                 6.2197                 0.4439

                     10                     11                     12
                      A                      A                      A
 Frequencies --    714.0878               781.6901               813.5739
 Red. masses --      2.0093                 1.6990                 5.0419
 Frc consts  --      0.6037                 0.6117                 1.9663
 IR Inten    --     28.6976                60.6165                16.5117

                     13                     14                     15
                      A                      A                      A
 Frequencies --    848.0860               919.2439               984.1497
 Red. masses --      1.2457                 1.5108                 1.3388
 Frc consts  --      0.5279                 0.7522                 0.7640
 IR Inten    --      0.0477                 7.9575                 0.0797

                     16                     17                     18
                      A                      A                      A
 Frequencies --    999.7469              1017.0039              1059.7107
 Red. masses --      1.2694                 5.3653                 2.1940
 Frc consts  --      0.7475                 3.2696                 1.4516
 IR Inten    --      0.2506                 0.5180                 2.0119

                     19                     20                     21
                      A                      A                      A
 Frequencies --   1111.5471              1117.4712              1174.8800
 Red. masses --      1.9074                 2.6492                 1.1469
 Frc consts  --      1.3885                 1.9491                 0.9327
 IR Inten    --     10.0824                41.5422                 2.0092

                     22                     23                     24
                      A                      A                      A
 Frequencies --   1184.5118              1199.4745              1218.0085
 Red. masses --      1.2804                 1.1371                 1.4075
 Frc consts  --      1.0585                 0.9639                 1.2303
 IR Inten    --      1.0270                11.5862                 6.3939

                     25                     26                     27
                      A                      A                      A
 Frequencies --   1302.1170              1338.4551              1360.1047
 Red. masses --      4.7295                 2.3374                 1.9271
 Frc consts  --      4.7246                 2.4672                 2.1004
 IR Inten    --    128.3125                87.1502                40.9172

                     28                     29                     30
                      A                      A                      A
 Frequencies --   1481.8914              1501.4467              1504.3309
 Red. masses --      1.2009                 2.1393                 1.0440
 Frc consts  --      1.5538                 2.8415                 1.3921
 IR Inten    --      7.5967                 4.8928                 8.5946

                     31                     32                     33
                      A                      A                      A
 Frequencies --   1518.7225              1548.9902              1662.1312
 Red. masses --      1.1110                 2.4577                 6.3308
 Frc consts  --      1.5097                 3.4744                10.3048
 IR Inten    --     24.9981               116.5491                24.3164

                     34                     35                     36
                      A                      A                      A
 Frequencies --   1679.7656              3040.5158              3102.1215
 Red. masses --      6.1180                 1.0350                 1.1056
 Frc consts  --     10.1709                 5.6376                 6.2685
 IR Inten    --     75.8783                39.5563                28.8127

                     37                     38                     39
                      A                      A                      A
 Frequencies --   3172.0093              3205.6726              3212.9254
 Red. masses --      1.0999                 1.0856                 1.0897
 Frc consts  --      6.5203                 6.5728                 6.6277
 IR Inten    --     17.3398                 1.3779                 6.9800

                     40                     41                     42
                      A                      A                      A
 Frequencies --   3227.7429              3234.0841              3245.3722
 Red. masses --      1.0928                 1.0970                 1.0928
 Frc consts  --      6.7077                 6.7602                 6.7812
 IR Inten    --      9.7533                 6.0691                 2.6200

 - Thermochemistry -
 -------------------
 Temperature   298.150 Kelvin.  Pressure   1.00000 Atm.
 Atom     1 has atomic number  6 and mass  12.00000

 Molecular mass:   108.05751 amu.
 Principal axes and moments of inertia in atomic units:
                           1         2         3
     Eigenvalues --   354.665821138.851491482.07516
           X            0.99974   0.02260   0.00001
           Y           -0.02260   0.99974  -0.00007
           Z           -0.00001   0.00007   1.00000
 This molecule is an asymmetric top.
 Rotational symmetry number  1.
 Rotational temperatures (Kelvin)      0.24421     0.07605     0.05844
 Rotational constants (GHZ):           5.08857     1.58470     1.21771
 Zero-point vibrational energy     352696.5 (Joules/Mol)
                                   84.29650 (Kcal/Mol)
 Warning -- explicit consideration of   8 degrees of freedom as
           vibrations may cause significant error
 Vibrational temperatures:    135.71   318.23   394.48   426.26   613.50
          (Kelvin)            653.61   756.31   811.47   904.09  1027.41
                             1124.68  1170.55  1220.21  1322.59  1415.97
                             1438.41  1463.24  1524.69  1599.27  1607.79
                             1690.39  1704.25  1725.78  1752.44  1873.46
                             1925.74  1956.89  2132.11  2160.25  2164.40
                             2185.10  2228.65  2391.44  2416.81  4374.62
                             4463.26  4563.81  4612.25  4622.68  4644.00
                             4653.13  4669.37

 Zero-point correction=                           0.134335 (Hartree/Particle)
 Thermal correction to Energy=                    0.141091
 Thermal correction to Enthalpy=                  0.142035
 Thermal correction to Gibbs Free Energy=         0.103398
 Sum of electronic and zero-point Energies=           -346.616367
 Sum of electronic and thermal Energies=              -346.609611
 Sum of electronic and thermal Enthalpies=            -346.608667
 Sum of electronic and thermal Free Energies=         -346.647304

                     E (Thermal)             CV                S
                      KCal/Mol        Cal/Mol-Kelvin    Cal/Mol-Kelvin
 Total                   88.536             25.987             81.319
 Electronic               0.000              0.000              0.000
 Translational            0.889              2.981             39.949
 Rotational               0.889              2.981             27.884
 Vibrational             86.758             20.025             13.486
 Vibration     1          0.603              1.953              3.568
 Vibration     2          0.648              1.809              1.949
 Vibration     3          0.676              1.721              1.570
 Vibration     4          0.690              1.681              1.438
 Vibration     5          0.788              1.413              0.870
 Vibration     6          0.813              1.351              0.783
 Vibration     7          0.881              1.193              0.597
 Vibration     8          0.920              1.109              0.516

 Optimization completed.
    -- Stationary point found.
 Normal termination of Gaussian 16 at Mon Jun 20 17:38:13 2022.
