 Gaussian 16, Revision C.01,
 Gaussian 16:  AS64L-G16RevC.01  3-Jul-2019

 -------------------------
 # opt freq M062X/def2tzvp
 -------------------------

 converted from /home/svss/projects/Project-Philicity/GS/hydrocarbon/se
 t-1/GS/mol_25_hc/mol_25_hc_cregen_best.xyz
 ----------------------------------------------------------------------
 Symbolic Z-matrix:
 Charge =  0 Multiplicity = 1

 SCF Done:  E(RM062X) =  -155.026952417     A.U. after   12 cycles
 SCF Done:  E(RM062X) =  -155.027110204     A.U. after    9 cycles
 SCF Done:  E(RM062X) =  -155.027126477     A.U. after    8 cycles
 SCF Done:  E(RM062X) =  -155.027128683     A.U. after    8 cycles
 SCF Done:  E(RM062X) =  -155.027130030     A.U. after    8 cycles
 SCF Done:  E(RM062X) =  -155.027130944     A.U. after    8 cycles
 SCF Done:  E(RM062X) =  -155.027131272     A.U. after    8 cycles
 Optimization completed.
    -- Stationary point found.
 Normal termination of Gaussian 16 at Mon Jun 20 18:53:11 2022.

 --------------------------------------------------------------------
 #N Geom=AllCheck Guess=TCheck SCRF=Check GenChk RM062X/def2TZVP Freq
 --------------------------------------------------------------------

 ----------------------------------------------------------------------
 converted from /home/svss/projects/Project-Philicity/GS/hydrocarbon/se
 t-1/GS/mol_25_hc/mol_25_hc_cregen_best.xyz
 ----------------------------------------------------------------------
 Charge =  0 Multiplicity = 1

                         Standard orientation:
 ---------------------------------------------------------------------
 Center     Atomic      Atomic             Coordinates (Angstroms)
 Number     Number       Type             X           Y           Z
 ---------------------------------------------------------------------
      1          6           0        1.205368   -0.239987   -0.022133
      2          6           0       -0.082545    0.558123    0.047181
      3          8           0       -1.230625   -0.256896   -0.105374
      4          1           0        1.259542   -0.789226   -0.962034
      5          1           0        2.073682    0.416300    0.050834
      6          1           0        1.259989   -0.958938    0.798697
      7          1           0       -0.126714    1.279515   -0.768912
      8          1           0       -0.131785    1.121439    0.985912
      9          1           0       -1.226650   -0.922739    0.588204
 ---------------------------------------------------------------------

 SCF Done:  E(RM062X) =  -155.027131272     A.U. after    1 cycles

 The electronic state is 1-A.
 Alpha  occ. eigenvalues --  -19.61937 -10.57994 -10.52718  -1.14214  -0.84590
 Alpha  occ. eigenvalues --   -0.71253  -0.57995  -0.52720  -0.50871  -0.45078
 Alpha  occ. eigenvalues --   -0.43874  -0.39373  -0.34950
 Alpha virt. eigenvalues --    0.06095   0.10081   0.11730   0.13820   0.14735
 Alpha virt. eigenvalues --    0.16314   0.18306   0.22189   0.23365   0.26700
 Alpha virt. eigenvalues --    0.30681   0.31746   0.35950   0.40764   0.42947

 Mulliken charges:
               1
     1  C   -0.428126
     2  C   -0.045048
     3  O   -0.467843
     4  H    0.146965
     5  H    0.130420
     6  H    0.126094
     7  H    0.121545
     8  H    0.110221
     9  H    0.305771
 Sum of Mulliken charges =  -0.00000

 Dipole moment (field-independent basis, Debye):
    X=              1.2763    Y=             -0.2026    Z=              1.1657  Tot=              1.7404
 Quadrupole moment (field-independent basis, Debye-Ang):
   XX=            -22.5122   YY=            -18.6534   ZZ=            -19.3095
   XY=              1.0551   XZ=             -1.7564   YZ=             -1.4811

  Exact polarizability:      31.979       0.376      30.407      -0.143      -0.611      28.474
 Approx polarizability:      33.188       1.353      34.093       0.280      -1.116      33.214

                      1                      2                      3
                      A                      A                      A
 Frequencies --    258.2462               277.9286               427.6972
 Red. masses --      1.0352                 1.1682                 2.6673
 Frc consts  --      0.0407                 0.0532                 0.2875
 IR Inten    --     68.8621                55.4145                13.1337

                      4                      5                      6
                      A                      A                      A
 Frequencies --    806.8214               906.1440              1068.1604
 Red. masses --      1.0830                 2.0722                 1.3963
 Frc consts  --      0.4154                 1.0025                 0.9387
 IR Inten    --      2.5376                 7.0536                31.6040

                      7                      8                      9
                      A                      A                      A
 Frequencies --   1109.8279              1155.1977              1282.8423
 Red. masses --      2.5757                 2.2037                 1.3057
 Frc consts  --      1.8692                 1.7327                 1.2660
 IR Inten    --     82.9125                24.2988                11.0956

                     10                     11                     12
                      A                      A                      A
 Frequencies --   1374.7864              1401.3136              1429.4231
 Red. masses --      1.1975                 1.2187                 1.3351
 Frc consts  --      1.3336                 1.4100                 1.6073
 IR Inten    --      3.2401                 5.6885                45.3897

                     13                     14                     15
                      A                      A                      A
 Frequencies --   1490.9024              1496.1870              1525.3704
 Red. masses --      1.0447                 1.0456                 1.0915
 Frc consts  --      1.3681                 1.3790                 1.4963
 IR Inten    --      7.7086                 2.1923                 1.0737

                     16                     17                     18
                      A                      A                      A
 Frequencies --   3035.2138              3058.9864              3110.9693
 Red. masses --      1.0704                 1.0370                 1.0941
 Frc consts  --      5.8102                 5.7173                 6.2385
 IR Inten    --     53.2589                12.9613                 4.8210

                     19                     20                     21
                      A                      A                      A
 Frequencies --   3134.3712              3148.6878              3871.8886
 Red. masses --      1.1000                 1.1034                 1.0663
 Frc consts  --      6.3670                 6.4450                 9.4180
 IR Inten    --     40.2769                21.8588                30.0681

 - Thermochemistry -
 -------------------
 Temperature   298.150 Kelvin.  Pressure   1.00000 Atm.
 Atom     1 has atomic number  6 and mass  12.00000

 Molecular mass:    46.04186 amu.
 Principal axes and moments of inertia in atomic units:
                           1         2         3
     Eigenvalues --    52.39179 193.92650 220.12324
           X            0.99977  -0.01373  -0.01646
           Y            0.01283   0.99848  -0.05355
           Z            0.01717   0.05333   0.99843
 This molecule is an asymmetric top.
 Rotational symmetry number  1.
 Rotational temperatures (Kelvin)      1.65320     0.44663     0.39348
 Rotational constants (GHZ):          34.44702     9.30632     8.19878
 Zero-point vibrational energy     211565.4 (Joules/Mol)
                                   50.56533 (Kcal/Mol)
 Warning -- explicit consideration of   3 degrees of freedom as
           vibrations may cause significant error
 Vibrational temperatures:    371.56   399.88   615.36  1160.84  1303.74
          (Kelvin)           1536.84  1596.79  1662.07  1845.72  1978.01
                             2016.18  2056.62  2145.08  2152.68  2194.67
                             4367.00  4401.20  4475.99  4509.66  4530.26
                             5570.78

 Zero-point correction=                           0.080581 (Hartree/Particle)
 Thermal correction to Energy=                    0.084871
 Thermal correction to Enthalpy=                  0.085815
 Thermal correction to Gibbs Free Energy=         0.055189
 Sum of electronic and zero-point Energies=           -154.946550
 Sum of electronic and thermal Energies=              -154.942261
 Sum of electronic and thermal Enthalpies=            -154.941316
 Sum of electronic and thermal Free Energies=         -154.971943

                     E (Thermal)             CV                S
                      KCal/Mol        Cal/Mol-Kelvin    Cal/Mol-Kelvin
 Total                   53.257             13.477             64.459
 Electronic               0.000              0.000              0.000
 Translational            0.889              2.981             37.406
 Rotational               0.889              2.981             22.330
 Vibrational             51.480              7.516              4.723
 Vibration     1          0.667              1.749              1.674
 Vibration     2          0.679              1.714              1.546
 Vibration     3          0.789              1.410              0.866

 Optimization completed.
    -- Stationary point found.
 Normal termination of Gaussian 16 at Mon Jun 20 18:53:57 2022.
