 Gaussian 16, Revision C.01,
 Gaussian 16:  AS64L-G16RevC.01  3-Jul-2019

 -------------------------
 # opt freq M062X/def2tzvp
 -------------------------

 converted from /home/svss/projects/Project-Philicity/GS/hydrocarbon/se
 t-1/GS/mol_31_hc/mol_31_hc_cregen_best.xyz
 ----------------------------------------------------------------------
 Symbolic Z-matrix:
 Charge =  0 Multiplicity = 1

 SCF Done:  E(RM062X) =  -399.378985040     A.U. after   11 cycles
 SCF Done:  E(RM062X) =  -399.379080897     A.U. after    8 cycles
 SCF Done:  E(RM062X) =  -399.379081374     A.U. after    6 cycles
 Optimization completed.
    -- Stationary point found.
 Normal termination of Gaussian 16 at Mon Jun 20 19:44:32 2022.

 --------------------------------------------------------------------
 #N Geom=AllCheck Guess=TCheck SCRF=Check GenChk RM062X/def2TZVP Freq
 --------------------------------------------------------------------

 ----------------------------------------------------------------------
 converted from /home/svss/projects/Project-Philicity/GS/hydrocarbon/se
 t-1/GS/mol_31_hc/mol_31_hc_cregen_best.xyz
 ----------------------------------------------------------------------
 Charge =  0 Multiplicity = 1

                         Standard orientation:
 ---------------------------------------------------------------------
 Center     Atomic      Atomic             Coordinates (Angstroms)
 Number     Number       Type             X           Y           Z
 ---------------------------------------------------------------------
      1         16           0        0.000000   -0.000000    0.102760
      2          1           0       -0.000000    0.964964   -0.822078
      3          1           0       -0.000000   -0.964964   -0.822078
 ---------------------------------------------------------------------

 SCF Done:  E(RM062X) =  -399.379081374     A.U. after    1 cycles

 The electronic state is 1-A1.
 Alpha  occ. eigenvalues --  -89.90386  -8.26397  -6.18354  -6.18176  -6.17844
 Alpha  occ. eigenvalues --   -0.82934  -0.50543  -0.42664  -0.31937
 Alpha virt. eigenvalues --    0.05765   0.06089   0.21696   0.25795   0.32647
 Alpha virt. eigenvalues --    0.33155   0.35540   0.37959   0.38632   0.42633
 Alpha virt. eigenvalues --    0.58035   0.70231   0.70705   1.33743   1.38369

 Mulliken charges:
               1
     1  S   -0.333149
     2  H    0.166574
     3  H    0.166574
 Sum of Mulliken charges =   0.00000

 Dipole moment (field-independent basis, Debye):
    X=             -0.0000    Y=              0.0000    Z=             -1.1430  Tot=              1.1430
 Quadrupole moment (field-independent basis, Debye-Ang):
   XX=            -16.5995   YY=            -12.2168   ZZ=            -13.4716
   XY=              0.0000   XZ=              0.0000   YZ=              0.0000

  Exact polarizability:      14.767       0.000      20.133      -0.000      -0.000      19.227
 Approx polarizability:      17.901       0.000      25.983       0.000      -0.000      23.801

                      1                      2                      3
                     A1                     A1                     B2
 Frequencies --   1220.7326              2740.5438              2752.4018
 Red. masses --      1.0391                 1.0361                 1.0399
 Frc consts  --      0.9123                 4.5849                 4.6414
 IR Inten    --      0.1821                 0.1427                 0.0037

 - Thermochemistry -
 -------------------
 Temperature   298.150 Kelvin.  Pressure   1.00000 Atm.
 Atom     1 has atomic number 16 and mass  31.97207

 Molecular mass:    33.98772 amu.
 Principal axes and moments of inertia in atomic units:
                           1         2         3
     Eigenvalues --     5.79152   6.70247  12.49399
           X            0.00000   0.00000   1.00000
           Y            1.00000   0.00000   0.00000
           Z            0.00000   1.00000   0.00000
 This molecule is an asymmetric top.
 Rotational symmetry number  2.
 Rotational temperatures (Kelvin)     14.95530    12.92268     6.93245
 Rotational constants (GHZ):         311.61788   269.26502   144.44873
 Zero-point vibrational energy      40156.7 (Joules/Mol)
                                    9.59768 (Kcal/Mol)
 Vibrational temperatures:   1756.36  3943.03  3960.09
          (Kelvin)

 Zero-point correction=                           0.015295 (Hartree/Particle)
 Thermal correction to Energy=                    0.018143
 Thermal correction to Enthalpy=                  0.019087
 Thermal correction to Gibbs Free Energy=        -0.004246
 Sum of electronic and zero-point Energies=           -399.363786
 Sum of electronic and thermal Energies=              -399.360938
 Sum of electronic and thermal Enthalpies=            -399.359994
 Sum of electronic and thermal Free Energies=         -399.383328

                     E (Thermal)             CV                S
                      KCal/Mol        Cal/Mol-Kelvin    Cal/Mol-Kelvin
 Total                   11.385              6.155             49.109
 Electronic               0.000              0.000              0.000
 Translational            0.889              2.981             36.501
 Rotational               0.889              2.981             12.570
 Vibrational              9.607              0.193              0.038

 Optimization completed.
    -- Stationary point found.
 Normal termination of Gaussian 16 at Mon Jun 20 19:44:36 2022.
