 Gaussian 16, Revision C.01,
 Gaussian 16:  AS64L-G16RevC.01  3-Jul-2019

 -------------------------
 # opt freq M062X/def2tzvp
 -------------------------

 converted from /home/svss/projects/Project-Philicity/GS/hydrocarbon/se
 t-1/GS/mol_12_hc/mol_12_hc_cregen_best.xyz
 ----------------------------------------------------------------------
 Symbolic Z-matrix:
 Charge =  0 Multiplicity = 1

 SCF Done:  E(RM062X) =  -271.534851304     A.U. after   13 cycles
 SCF Done:  E(RM062X) =  -271.535018138     A.U. after   10 cycles
 SCF Done:  E(RM062X) =  -271.535022560     A.U. after    7 cycles
 Optimization completed.
    -- Stationary point found.
 Normal termination of Gaussian 16 at Mon Jun 20 17:14:01 2022.

 --------------------------------------------------------------------
 #N Geom=AllCheck Guess=TCheck SCRF=Check GenChk RM062X/def2TZVP Freq
 --------------------------------------------------------------------

 ----------------------------------------------------------------------
 converted from /home/svss/projects/Project-Philicity/GS/hydrocarbon/se
 t-1/GS/mol_12_hc/mol_12_hc_cregen_best.xyz
 ----------------------------------------------------------------------
 Charge =  0 Multiplicity = 1

                         Standard orientation:
 ---------------------------------------------------------------------
 Center     Atomic      Atomic             Coordinates (Angstroms)
 Number     Number       Type             X           Y           Z
 ---------------------------------------------------------------------
      1          6           0       -2.411723    0.000098    0.009168
      2          6           0       -0.907496    0.000279   -0.011655
      3          6           0       -0.194084   -1.195460   -0.008801
      4          6           0        1.193447   -1.198805    0.001998
      5          6           0        1.893154   -0.000203    0.008437
      6          6           0        1.193903    1.198545    0.001995
      7          6           0       -0.193744    1.195681   -0.008797
      8          1           0       -2.812492   -0.878262   -0.496094
      9          1           0       -2.782855   -0.011511    1.036451
     10          1           0       -2.812527    0.889377   -0.476469
     11          1           0       -0.734103   -2.135339   -0.017702
     12          1           0        1.729284   -2.139491    0.001835
     13          1           0        2.975311   -0.000401    0.013759
     14          1           0        1.730032    2.139065    0.001834
     15          1           0       -0.733392    2.135751   -0.017685
 ---------------------------------------------------------------------

 SCF Done:  E(RM062X) =  -271.535022560     A.U. after    1 cycles

 The electronic state is 1-A.
 Alpha  occ. eigenvalues --  -10.54672 -10.53784 -10.53773 -10.53537 -10.53510
 Alpha  occ. eigenvalues --  -10.53504 -10.53110  -0.96220  -0.86991  -0.84011
 Alpha  occ. eigenvalues --   -0.77565  -0.68704  -0.66369  -0.58598  -0.52812
 Alpha  occ. eigenvalues --   -0.52295  -0.48982  -0.48433  -0.47141  -0.44849
 Alpha  occ. eigenvalues --   -0.42506  -0.39730  -0.39494  -0.30607  -0.29582
 Alpha virt. eigenvalues --    0.02388   0.02732   0.07792   0.09376   0.10833
 Alpha virt. eigenvalues --    0.12615   0.13818   0.14128   0.15871   0.16636
 Alpha virt. eigenvalues --    0.17909   0.19309   0.20768   0.22168   0.22600

 Mulliken charges:
               1
     1  C   -0.472804
     2  C    0.126793
     3  C   -0.182415
     4  C   -0.138429
     5  C   -0.161536
     6  C   -0.138559
     7  C   -0.182400
     8  H    0.144733
     9  H    0.157806
    10  H    0.144221
    11  H    0.141219
    12  H    0.139753
    13  H    0.140795
    14  H    0.139748
    15  H    0.141075
 Sum of Mulliken charges =  -0.00000

 Dipole moment (field-independent basis, Debye):
    X=             -0.3683    Y=             -0.0014    Z=              0.0367  Tot=              0.3701
 Quadrupole moment (field-independent basis, Debye-Ang):
   XX=            -38.2761   YY=            -38.6307   ZZ=            -46.2387
   XY=              0.0022   XZ=             -0.0299   YZ=              0.0001

  Exact polarizability:      98.050       0.019      85.164      -0.295       0.000      48.212
 Approx polarizability:     118.488       0.030     114.206      -0.240      -0.000      64.606

                      1                      2                      3
                      A                      A                      A
 Frequencies --     34.3843               210.8018               346.5186
 Red. masses --      1.0366                 3.0012                 2.4917
 Frc consts  --      0.0007                 0.0786                 0.1763
 IR Inten    --      0.2253                 2.3584                 0.2846

                      4                      5                      6
                      A                      A                      A
 Frequencies --    415.0757               476.6321               529.8858
 Red. masses --      2.8949                 2.6788                 5.0427
 Frc consts  --      0.2939                 0.3586                 0.8342
 IR Inten    --      0.0041                 9.6594                 0.6387

                      7                      8                      9
                      A                      A                      A
 Frequencies --    635.7871               720.0698               753.9394
 Red. masses --      6.3279                 2.0907                 1.4415
 Frc consts  --      1.5071                 0.6387                 0.4828
 IR Inten    --      0.0791                27.0782                50.5107

                     10                     11                     12
                      A                      A                      A
 Frequencies --    808.5647               871.6359               926.9671
 Red. masses --      4.3943                 1.2498                 1.3010
 Frc consts  --      1.6927                 0.5595                 0.6586
 IR Inten    --      0.7808                 0.0230                 0.4166

                     13                     14                     15
                      A                      A                      A
 Frequencies --    989.6467              1005.6363              1010.7580
 Red. masses --      1.3705                 1.4185                 1.2875
 Frc consts  --      0.7908                 0.8452                 0.7750
 IR Inten    --      0.0000                 0.0484                 0.0300

                     16                     17                     18
                      A                      A                      A
 Frequencies --   1022.9506              1064.9868              1067.5692
 Red. masses --      5.9364                 2.1439                 1.5814
 Frc consts  --      3.6600                 1.4327                 1.0619
 IR Inten    --      0.0818                 2.9012                 7.0611

                     19                     20                     21
                      A                      A                      A
 Frequencies --   1118.8166              1177.4167              1205.3868
 Red. masses --      1.4227                 1.1446                 1.1182
 Frc consts  --      1.0493                 0.9349                 0.9572
 IR Inten    --      5.6175                 0.0129                 0.3613

                     22                     23                     24
                      A                      A                      A
 Frequencies --   1246.8515              1318.0939              1356.4926
 Red. masses --      2.8008                 4.7456                 1.3478
 Frc consts  --      2.5654                 4.8578                 1.4612
 IR Inten    --      0.6647                 0.0427                 0.0083

                     25                     26                     27
                      A                      A                      A
 Frequencies --   1412.9399              1477.1567              1491.5717
 Red. masses --      1.2778                 1.3621                 1.0484
 Frc consts  --      1.5031                 1.7512                 1.3742
 IR Inten    --      1.1521                 0.6255                 7.0638

                     28                     29                     30
                      A                      A                      A
 Frequencies --   1510.8205              1544.9605              1659.2141
 Red. masses --      1.5439                 2.4472                 5.7888
 Frc consts  --      2.0763                 3.4416                 9.3895
 IR Inten    --     13.4067                14.9433                 0.3583

                     31                     32                     33
                      A                      A                      A
 Frequencies --   1681.6588              3064.4781              3126.9934
 Red. masses --      6.0905                 1.0380                 1.0980
 Frc consts  --     10.1480                 5.7435                 6.3257
 IR Inten    --      8.4717                19.7481                11.2463

                     34                     35                     36
                      A                      A                      A
 Frequencies --   3150.7607              3192.4704              3193.7271
 Red. masses --      1.1030                 1.0868                 1.0885
 Frc consts  --      6.4512                 6.5261                 6.5416
 IR Inten    --     10.7158                 6.1065                 4.8353

                     37                     38                     39
                      A                      A                      A
 Frequencies --   3207.2890              3216.5256              3227.9364
 Red. masses --      1.0898                 1.0941                 1.0984
 Frc consts  --      6.6051                 6.6693                 6.7430
 IR Inten    --      3.5269                19.8180                 8.8791

 - Thermochemistry -
 -------------------
 Temperature   298.150 Kelvin.  Pressure   1.00000 Atm.
 Atom     1 has atomic number  6 and mass  12.00000

 Molecular mass:    92.06260 amu.
 Principal axes and moments of inertia in atomic units:
                           1         2         3
     Eigenvalues --   322.63341 710.686251022.13727
           X            1.00000   0.00002  -0.00039
           Y           -0.00002   1.00000   0.00000
           Z            0.00039  -0.00000   1.00000
 This molecule is an asymmetric top.
 Rotational symmetry number  1.
 Rotational temperatures (Kelvin)      0.26846     0.12187     0.08474
 Rotational constants (GHZ):           5.59378     2.53943     1.76565
 Zero-point vibrational energy     337785.8 (Joules/Mol)
                                   80.73274 (Kcal/Mol)
 Warning -- explicit consideration of   6 degrees of freedom as
           vibrations may cause significant error
 Vibrational temperatures:     49.47   303.30   498.56   597.20   685.77
          (Kelvin)            762.39   914.76  1036.02  1084.75  1163.34
                             1254.09  1333.70  1423.88  1446.89  1454.26
                             1471.80  1532.28  1535.99  1609.73  1694.04
                             1734.28  1793.94  1896.44  1951.69  2032.91
                             2125.30  2146.04  2173.73  2222.85  2387.24
                             2419.53  4409.10  4499.05  4533.24  4593.25
                             4595.06  4614.57  4627.86  4644.28

 Zero-point correction=                           0.128656 (Hartree/Particle)
 Thermal correction to Energy=                    0.134852
 Thermal correction to Enthalpy=                  0.135796
 Thermal correction to Gibbs Free Energy=         0.097962
 Sum of electronic and zero-point Energies=           -271.406367
 Sum of electronic and thermal Energies=              -271.400171
 Sum of electronic and thermal Enthalpies=            -271.399227
 Sum of electronic and thermal Free Energies=         -271.437061

                     E (Thermal)             CV                S
                      KCal/Mol        Cal/Mol-Kelvin    Cal/Mol-Kelvin
 Total                   84.621             23.093             79.628
 Electronic               0.000              0.000              0.000
 Translational            0.889              2.981             39.471
 Rotational               0.889              2.981             26.952
 Vibrational             82.843             17.132             13.205
 Vibration     1          0.594              1.983              5.559
 Vibration     2          0.643              1.824              2.037
 Vibration     3          0.725              1.582              1.182
 Vibration     4          0.778              1.437              0.909
 Vibration     5          0.833              1.302              0.719
 Vibration     6          0.885              1.184              0.587

                           ! Non-Optimized Parameters !
 Normal termination of Gaussian 16 at Mon Jun 20 17:19:40 2022.
