 Gaussian 16, Revision C.01,
 Gaussian 16:  AS64L-G16RevC.01  3-Jul-2019

 -------------------------
 # opt freq M062X/def2tzvp
 -------------------------

 converted from /home/svss/projects/Project-Philicity/GS/hydrocarbon/se
 t-1/GS/mol_22_hc/mol_22_hc_cregen_best.xyz
 ----------------------------------------------------------------------
 Symbolic Z-matrix:
 Charge =  0 Multiplicity = 1

 SCF Done:  E(RM062X) =  -363.785522925     A.U. after   14 cycles
 SCF Done:  E(RM062X) =  -363.785964499     A.U. after   14 cycles
 SCF Done:  E(RM062X) =  -363.785978657     A.U. after    8 cycles
 Optimization completed.
    -- Stationary point found.
 Normal termination of Gaussian 16 at Mon Jun 20 18:10:51 2022.

 --------------------------------------------------------------------
 #N Geom=AllCheck Guess=TCheck SCRF=Check GenChk RM062X/def2TZVP Freq
 --------------------------------------------------------------------

 ----------------------------------------------------------------------
 converted from /home/svss/projects/Project-Philicity/GS/hydrocarbon/se
 t-1/GS/mol_22_hc/mol_22_hc_cregen_best.xyz
 ----------------------------------------------------------------------
 Charge =  0 Multiplicity = 1

                         Standard orientation:
 ---------------------------------------------------------------------
 Center     Atomic      Atomic             Coordinates (Angstroms)
 Number     Number       Type             X           Y           Z
 ---------------------------------------------------------------------
      1          6           0        3.186210   -0.000045    0.014193
      2          6           0        1.684228    0.000085   -0.010807
      3          6           0        0.971664   -1.197411   -0.010039
      4          6           0       -0.411549   -1.206164   -0.003256
      5          6           0       -1.109488    0.000007    0.001195
      6          6           0       -2.544681   -0.000023    0.005016
      7          7           0       -3.692566   -0.000071    0.008154
      8          6           0       -0.411627    1.206185   -0.003243
      9          6           0        0.971626    1.197512   -0.010023
     10          1           0        3.588593    0.886417   -0.474511
     11          1           0        3.549227   -0.004276    1.044421
     12          1           0        3.588477   -0.882650   -0.481588
     13          1           0        1.510041   -2.137378   -0.017316
     14          1           0       -0.958242   -2.139572   -0.004519
     15          1           0       -0.958365    2.139567   -0.004493
     16          1           0        1.509935    2.137509   -0.017287
 ---------------------------------------------------------------------

 SCF Done:  E(RM062X) =  -363.785978657     A.U. after    1 cycles

 The electronic state is 1-A.
 Alpha  occ. eigenvalues --  -14.74986 -10.59066 -10.57574 -10.57446 -10.57110
 Alpha  occ. eigenvalues --  -10.57107 -10.56182 -10.56179 -10.55031  -1.02177
 Alpha  occ. eigenvalues --   -0.99128  -0.90630  -0.87125  -0.81380  -0.72022
 Alpha  occ. eigenvalues --   -0.71052  -0.64495  -0.56548  -0.55858  -0.52217
 Alpha  occ. eigenvalues --   -0.51372  -0.51219  -0.47446  -0.47386  -0.44856
 Alpha  occ. eigenvalues --   -0.42938  -0.42851  -0.41380  -0.40091  -0.33498
 Alpha  occ. eigenvalues --   -0.31614
 Alpha virt. eigenvalues --   -0.02233  -0.00217   0.06189   0.07804   0.08179
 Alpha virt. eigenvalues --    0.09350   0.10305   0.11358   0.13176   0.14068
 Alpha virt. eigenvalues --    0.14708   0.15314   0.16493   0.17373   0.18986

 Mulliken charges:
               1
     1  C   -0.469899
     2  C    0.107708
     3  C   -0.160936
     4  C   -0.185511
     5  C    0.187067
     6  C   -0.271705
     7  N    0.028438
     8  C   -0.185572
     9  C   -0.160972
    10  H    0.150255
    11  H    0.166774
    12  H    0.150460
    13  H    0.153581
    14  H    0.168384
    15  H    0.168387
    16  H    0.153539
 Sum of Mulliken charges =  -0.00000

 Dipole moment (field-independent basis, Debye):
    X=              5.2695    Y=             -0.0004    Z=              0.0312  Tot=              5.2696
 Quadrupole moment (field-independent basis, Debye-Ang):
   XX=            -66.2824   YY=            -46.2751   ZZ=            -55.3555
   XY=             -0.0021   XZ=              0.1585   YZ=              0.0001

  Exact polarizability:     140.733      -0.007      89.767       0.403       0.000      54.096
 Approx polarizability:     166.172      -0.009     122.885       0.371       0.000      73.224

                      1                      2                      3
                      A                      A                      A
 Frequencies --     39.2626               102.4245               154.0826
 Red. masses --      1.0381                 4.9838                 6.6472
 Frc consts  --      0.0009                 0.0308                 0.0930
 IR Inten    --      0.1613                 1.1545                 4.7258

                      4                      5                      6
                      A                      A                      A
 Frequencies --    250.6673               347.4582               411.8858
 Red. masses --      4.6150                 2.6660                 2.9139
 Frc consts  --      0.1709                 0.1896                 0.2913
 IR Inten    --      4.3894                 0.7132                 0.0041

                      7                      8                      9
                      A                      A                      A
 Frequencies --    416.9400               451.1612               573.1705
 Red. masses --      7.1601                 3.7159                 3.6270
 Frc consts  --      0.7334                 0.4456                 0.7020
 IR Inten    --      0.1335                 2.7060                22.4166

                     10                     11                     12
                      A                      A                      A
 Frequencies --    574.5143               664.7888               698.5665
 Red. masses --      7.6103                 7.1492                 4.7736
 Frc consts  --      1.4800                 1.8616                 1.3725
 IR Inten    --      0.2998                 0.0172                 0.4489

                     13                     14                     15
                      A                      A                      A
 Frequencies --    738.8035               841.7904               851.0967
 Red. masses --      3.0173                 4.3617                 1.5682
 Frc consts  --      0.9703                 1.8210                 0.6693
 IR Inten    --      2.0890                 3.4642                37.8004

                     16                     17                     18
                      A                      A                      A
 Frequencies --    869.6062               991.2772               998.4600
 Red. masses --      1.2482                 1.3332                 1.3664
 Frc consts  --      0.5561                 0.7719                 0.8026
 IR Inten    --      0.0147                 1.8765                 0.0000

                     19                     20                     21
                      A                      A                      A
 Frequencies --   1013.5162              1044.8679              1067.6094
 Red. masses --      1.3946                 2.7996                 1.6072
 Frc consts  --      0.8441                 1.8008                 1.0793
 IR Inten    --      0.0143                 2.0544                10.5792

                     22                     23                     24
                      A                      A                      A
 Frequencies --   1142.6747              1205.9259              1237.3170
 Red. masses --      1.2864                 1.1945                 2.7634
 Frc consts  --      0.9897                 1.0235                 2.4927
 IR Inten    --      3.7939                 3.7462                 0.0110

                     25                     26                     27
                      A                      A                      A
 Frequencies --   1250.0060              1308.4567              1339.4921
 Red. masses --      3.3612                 7.8132                 1.2915
 Frc consts  --      3.0943                 7.8813                 1.3653
 IR Inten    --      1.6193                 2.1151                 0.0720

                     28                     29                     30
                      A                      A                      A
 Frequencies --   1414.4830              1451.3355              1491.7472
 Red. masses --      1.2733                 2.3278                 1.0512
 Frc consts  --      1.5010                 2.8889                 1.3783
 IR Inten    --      1.2821                 1.2240                 7.5686

                     31                     32                     33
                      A                      A                      A
 Frequencies --   1494.0728              1560.2326              1637.3878
 Red. masses --      1.1738                 2.7208                 6.3791
 Frc consts  --      1.5438                 3.9024                10.0765
 IR Inten    --     13.0522                19.8584                 0.0544

                     34                     35                     36
                      A                      A                      A
 Frequencies --   1687.8764              2405.3328              3067.2755
 Red. masses --      6.2258                12.6856                 1.0384
 Frc consts  --     10.4503                43.2427                 5.7560
 IR Inten    --     20.9677                43.1008                12.1284

                     37                     38                     39
                      A                      A                      A
 Frequencies --   3131.4587              3156.7462              3205.3737
 Red. masses --      1.0975                 1.1034                 1.0895
 Frc consts  --      6.3408                 6.4780                 6.5950
 IR Inten    --      8.5762                 7.9658                 4.4735

                     40                     41                     42
                      A                      A                      A
 Frequencies --   3205.5243              3230.4010              3231.2357
 Red. masses --      1.0895                 1.0944                 1.0954
 Frc consts  --      6.5957                 6.7288                 6.7384
 IR Inten    --      4.8199                 1.8527                 0.0346

 - Thermochemistry -
 -------------------
 Temperature   298.150 Kelvin.  Pressure   1.00000 Atm.
 Atom     1 has atomic number  6 and mass  12.00000

 Molecular mass:   117.05785 amu.
 Principal axes and moments of inertia in atomic units:
                           1         2         3
     Eigenvalues --   324.651991826.542712139.99392
           X            1.00000  -0.00000   0.00047
           Y            0.00000   1.00000  -0.00001
           Z           -0.00047   0.00001   1.00000
 This molecule is an asymmetric top.
 Rotational symmetry number  1.
 Rotational temperatures (Kelvin)      0.26679     0.04742     0.04047
 Rotational constants (GHZ):           5.55900     0.98806     0.84334
 Zero-point vibrational energy     334693.0 (Joules/Mol)
                                   79.99355 (Kcal/Mol)
 Warning -- explicit consideration of  10 degrees of freedom as
           vibrations may cause significant error
 Vibrational temperatures:     56.49   147.37   221.69   360.65   499.91
          (Kelvin)            592.61   599.88   649.12   824.66   826.60
                              956.48  1005.08  1062.97  1211.15  1224.54
                             1251.17  1426.23  1436.56  1458.22  1503.33
                             1536.05  1644.05  1735.06  1780.22  1798.48
                             1882.58  1927.23  2035.13  2088.15  2146.29
                             2149.64  2244.83  2355.84  2428.48  3460.74
                             4413.13  4505.47  4541.85  4611.82  4612.03
                             4647.83  4649.03

 Zero-point correction=                           0.127478 (Hartree/Particle)
 Thermal correction to Energy=                    0.135407
 Thermal correction to Enthalpy=                  0.136351
 Thermal correction to Gibbs Free Energy=         0.094161
 Sum of electronic and zero-point Energies=           -363.658501
 Sum of electronic and thermal Energies=              -363.650572
 Sum of electronic and thermal Enthalpies=            -363.649628
 Sum of electronic and thermal Free Energies=         -363.691818

                     E (Thermal)             CV                S
                      KCal/Mol        Cal/Mol-Kelvin    Cal/Mol-Kelvin
 Total                   84.969             29.062             88.796
 Electronic               0.000              0.000              0.000
 Translational            0.889              2.981             40.187
 Rotational               0.889              2.981             28.630
 Vibrational             83.191             23.100             19.978
 Vibration     1          0.594              1.981              5.296
 Vibration     2          0.604              1.947              3.408
 Vibration     3          0.620              1.898              2.621
 Vibration     4          0.663              1.762              1.726
 Vibration     5          0.725              1.580              1.178
 Vibration     6          0.776              1.444              0.920
 Vibration     7          0.780              1.433              0.902
 Vibration     8          0.810              1.358              0.792
 Vibration     9          0.929              1.089              0.498
 Vibration    10          0.931              1.086              0.496

                           ! Non-Optimized Parameters !
 Normal termination of Gaussian 16 at Mon Jun 20 18:19:10 2022.
