 Gaussian 16, Revision C.01,
 Gaussian 16:  AS64L-G16RevC.01  3-Jul-2019

 -------------------------
 # opt freq M062X/def2tzvp
 -------------------------

 converted from /home/svss/projects/Project-Philicity/GS/hydrocarbon/se
 t-1/GS/mol_1_hc/mol_1_hc_cregen_best.xyz
 ----------------------------------------------------------------------
 Symbolic Z-matrix:
 Charge =  0 Multiplicity = 1

 SCF Done:  E(RM062X) =  -194.339773085     A.U. after   13 cycles
 SCF Done:  E(RM062X) =  -194.340013642     A.U. after   10 cycles
 SCF Done:  E(RM062X) =  -194.340036720     A.U. after    8 cycles
 SCF Done:  E(RM062X) =  -194.340040279     A.U. after    8 cycles
 SCF Done:  E(RM062X) =  -194.340041929     A.U. after    8 cycles
 SCF Done:  E(RM062X) =  -194.340043327     A.U. after    8 cycles
 SCF Done:  E(RM062X) =  -194.340043805     A.U. after    8 cycles
 Optimization completed.
    -- Stationary point found.
 Normal termination of Gaussian 16 at Mon Jun 20 16:03:20 2022.

 --------------------------------------------------------------------
 #N Geom=AllCheck Guess=TCheck SCRF=Check GenChk RM062X/def2TZVP Freq
 --------------------------------------------------------------------

 ----------------------------------------------------------------------
 converted from /home/svss/projects/Project-Philicity/GS/hydrocarbon/se
 t-1/GS/mol_1_hc/mol_1_hc_cregen_best.xyz
 ----------------------------------------------------------------------
 Charge =  0 Multiplicity = 1

                         Standard orientation:
 ---------------------------------------------------------------------
 Center     Atomic      Atomic             Coordinates (Angstroms)
 Number     Number       Type             X           Y           Z
 ---------------------------------------------------------------------
      1          6           0       -1.177160   -0.793273   -0.102401
      2          6           0        0.002192    0.042315    0.367307
      3          6           0        1.326836   -0.531979   -0.090241
      4          8           0       -0.066608    1.360784   -0.161426
      5          1           0       -1.121399   -1.806145    0.299023
      6          1           0       -2.122819   -0.354918    0.224388
      7          1           0       -1.181075   -0.847489   -1.192377
      8          1           0       -0.005844    0.090169    1.463881
      9          1           0        1.349374   -0.580900   -1.180140
     10          1           0        2.148427    0.100983    0.242985
     11          1           0        1.470180   -1.535904    0.310056
     12          1           0       -0.915185    1.745556    0.075608
 ---------------------------------------------------------------------

 SCF Done:  E(RM062X) =  -194.340043805     A.U. after    1 cycles

 The electronic state is 1-A.
 Alpha  occ. eigenvalues --  -19.61799 -10.58499 -10.52552 -10.51901  -1.14211
 Alpha  occ. eigenvalues --   -0.87215  -0.78352  -0.67112  -0.59070  -0.52812
 Alpha  occ. eigenvalues --   -0.50941  -0.45630  -0.44542  -0.43853  -0.42189
 Alpha  occ. eigenvalues --   -0.38819  -0.34590
 Alpha virt. eigenvalues --    0.05778   0.09947   0.11600   0.12381   0.13400
 Alpha virt. eigenvalues --    0.14514   0.17036   0.18373   0.18974   0.20336
 Alpha virt. eigenvalues --    0.23343   0.24216   0.25591   0.29801   0.30435

 Mulliken charges:
               1
     1  C   -0.437956
     2  C    0.066230
     3  C   -0.398284
     4  O   -0.464175
     5  H    0.133763
     6  H    0.131258
     7  H    0.148298
     8  H    0.101098
     9  H    0.140086
    10  H    0.145679
    11  H    0.127920
    12  H    0.306082
 Sum of Mulliken charges =   0.00000

 Dipole moment (field-independent basis, Debye):
    X=             -1.1710    Y=             -0.7887    Z=              0.8531  Tot=              1.6496
 Quadrupole moment (field-independent basis, Debye-Ang):
   XX=            -25.4012   YY=            -27.2732   ZZ=            -26.9793
   XY=             -2.7013   XZ=             -0.2555   YZ=              1.0248

  Exact polarizability:      45.204      -0.724      42.604      -0.205      -0.118      38.713
 Approx polarizability:      47.608      -1.075      48.180      -0.506      -0.857      46.575

                      1                      2                      3
                      A                      A                      A
 Frequencies --    218.9752               272.2399               281.2585
 Red. masses --      1.0341                 1.1143                 1.0307
 Frc consts  --      0.0292                 0.0487                 0.0480
 IR Inten    --     11.0096                25.9675                83.1479

                      4                      5                      6
                      A                      A                      A
 Frequencies --    367.1753               421.1381               488.5111
 Red. masses --      2.1674                 2.8116                 2.2495
 Frc consts  --      0.1722                 0.2938                 0.3163
 IR Inten    --      0.9648                10.5735                 6.5159

                      7                      8                      9
                      A                      A                      A
 Frequencies --    844.0049               934.7316               955.2008
 Red. masses --      2.5936                 1.1834                 1.4196
 Frc consts  --      1.0885                 0.6092                 0.7631
 IR Inten    --      3.1027                 0.3198                 0.8026

                     10                     11                     12
                      A                      A                      A
 Frequencies --    992.6340              1098.6343              1176.3028
 Red. masses --      2.0693                 1.5721                 2.0518
 Frc consts  --      1.2013                 1.1180                 1.6728
 IR Inten    --     36.6448                27.9007                15.1240

                     13                     14                     15
                      A                      A                      A
 Frequencies --   1203.1595              1280.6893              1381.1208
 Red. masses --      2.1232                 1.2213                 1.2386
 Frc consts  --      1.8109                 1.1802                 1.3921
 IR Inten    --     46.9441                53.4293                10.1824

                     16                     17                     18
                      A                      A                      A
 Frequencies --   1392.1028              1414.5244              1435.0759
 Red. masses --      1.2362                 1.3295                 1.5242
 Frc consts  --      1.4115                 1.5673                 1.8494
 IR Inten    --      2.5552                22.4504                23.1465

                     19                     20                     21
                      A                      A                      A
 Frequencies --   1483.4861              1488.1183              1498.7353
 Red. masses --      1.0518                 1.0732                 1.0901
 Frc consts  --      1.3638                 1.4002                 1.4426
 IR Inten    --      0.6292                 2.3096                 4.7773

                     22                     23                     24
                      A                      A                      A
 Frequencies --   1510.3138              3015.8801              3055.9125
 Red. masses --      1.0612                 1.0840                 1.0355
 Frc consts  --      1.4262                 5.8093                 5.6975
 IR Inten    --      7.6899                44.0673                17.8070

                     25                     26                     27
                      A                      A                      A
 Frequencies --   3068.9077              3126.9752              3139.8001
 Red. masses --      1.0353                 1.1015                 1.1028
 Frc consts  --      5.7448                 6.3459                 6.4056
 IR Inten    --     11.0694                26.0611                 2.1303

                     28                     29                     30
                      A                      A                      A
 Frequencies --   3146.5643              3154.1142              3873.4270
 Red. masses --      1.1019                 1.1029                 1.0663
 Frc consts  --      6.4280                 6.4646                 9.4255
 IR Inten    --     38.0414                17.8065                28.2825

 - Thermochemistry -
 -------------------
 Temperature   298.150 Kelvin.  Pressure   1.00000 Atm.
 Atom     1 has atomic number  6 and mass  12.00000

 Molecular mass:    60.05751 amu.
 Principal axes and moments of inertia in atomic units:
                           1         2         3
     Eigenvalues --   206.53065 222.03739 374.71807
           X            0.98964  -0.14353  -0.00232
           Y            0.14355   0.98944   0.02030
           Z           -0.00062  -0.02042   0.99979
 This molecule is an asymmetric top.
 Rotational symmetry number  1.
 Rotational temperatures (Kelvin)      0.41938     0.39009     0.23114
 Rotational constants (GHZ):           8.73837     8.12810     4.81626
 Zero-point vibrational energy     285427.3 (Joules/Mol)
                                   68.21876 (Kcal/Mol)
 Warning -- explicit consideration of   6 degrees of freedom as
           vibrations may cause significant error
 Vibrational temperatures:    315.06   391.69   404.67   528.28   605.92
          (Kelvin)            702.86  1214.33  1344.87  1374.32  1428.18
                             1580.69  1692.44  1731.08  1842.63  1987.12
                             2002.93  2035.19  2064.75  2134.41  2141.07
                             2156.35  2173.00  4339.18  4396.78  4415.47
                             4499.02  4517.47  4527.20  4538.07  5573.00

 Zero-point correction=                           0.108714 (Hartree/Particle)
 Thermal correction to Energy=                    0.114160
 Thermal correction to Enthalpy=                  0.115104
 Thermal correction to Gibbs Free Energy=         0.081323
 Sum of electronic and zero-point Energies=           -194.231330
 Sum of electronic and thermal Energies=              -194.225884
 Sum of electronic and thermal Enthalpies=            -194.224940
 Sum of electronic and thermal Free Energies=         -194.258721

                     E (Thermal)             CV                S
                      KCal/Mol        Cal/Mol-Kelvin    Cal/Mol-Kelvin
 Total                   71.636             18.880             71.098
 Electronic               0.000              0.000              0.000
 Translational            0.889              2.981             38.198
 Rotational               0.889              2.981             24.356
 Vibrational             69.859             12.919              8.544
 Vibration     1          0.647              1.812              1.968
 Vibration     2          0.675              1.724              1.582
 Vibration     3          0.681              1.708              1.526
 Vibration     4          0.740              1.540              1.092
 Vibration     5          0.784              1.424              0.888
 Vibration     6          0.844              1.276              0.687

 Optimization completed.
    -- Stationary point found.
 Normal termination of Gaussian 16 at Mon Jun 20 16:05:09 2022.
