 Gaussian 16, Revision C.01,
 Gaussian 16:  AS64L-G16RevC.01  3-Jul-2019

 -------------------------
 # opt freq M062X/def2tzvp
 -------------------------

 converted from /home/svss/projects/Project-Philicity/GS/hydrocarbon/se
 t-1/GS/mol_35_hc/mol_35_hc_cregen_best.xyz
 ----------------------------------------------------------------------
 Symbolic Z-matrix:
 Charge =  0 Multiplicity = 1

 SCF Done:  E(RM062X) =  -100.451003830     A.U. after   10 cycles
 SCF Done:  E(RM062X) =  -100.451162229     A.U. after    7 cycles
 SCF Done:  E(RM062X) =  -100.451162318     A.U. after    6 cycles
 Optimization completed.
    -- Stationary point found.
 Normal termination of Gaussian 16 at Mon Jun 20 20:15:41 2022.

 --------------------------------------------------------------------
 #N Geom=AllCheck Guess=TCheck SCRF=Check GenChk RM062X/def2TZVP Freq
 --------------------------------------------------------------------

 ----------------------------------------------------------------------
 converted from /home/svss/projects/Project-Philicity/GS/hydrocarbon/se
 t-1/GS/mol_35_hc/mol_35_hc_cregen_best.xyz
 ----------------------------------------------------------------------
 Charge =  0 Multiplicity = 1

                         Standard orientation:
 ---------------------------------------------------------------------
 Center     Atomic      Atomic             Coordinates (Angstroms)
 Number     Number       Type             X           Y           Z
 ---------------------------------------------------------------------
      1          9           0        0.000000    0.000000    0.092027
      2          1           0        0.000000    0.000000   -0.828241
 ---------------------------------------------------------------------

 SCF Done:  E(RM062X) =  -100.451162318     A.U. after    1 cycles

 The electronic state is 1-SG.
 Alpha  occ. eigenvalues --  -25.23292  -1.34124  -0.63787  -0.51333  -0.51333
 Alpha virt. eigenvalues --    0.05122   0.43816   0.58281   0.58281   0.58855
 Alpha virt. eigenvalues --    0.76150   1.42249   1.42249   1.85779   2.02282
 Alpha virt. eigenvalues --    2.02282   2.32581   2.49188   2.49188   2.93264

 Mulliken charges:
               1
     1  F   -0.408318
     2  H    0.408318
 Sum of Mulliken charges =   0.00000

 Dipole moment (field-independent basis, Debye):
    X=              0.0000    Y=              0.0000    Z=             -1.9539  Tot=              1.9539
 Quadrupole moment (field-independent basis, Debye-Ang):
   XX=             -5.7203   YY=             -5.7203   ZZ=             -3.6337
   XY=              0.0000   XZ=              0.0000   YZ=              0.0000

  Exact polarizability:       2.699       0.000       2.699      -0.000       0.000       4.967
 Approx polarizability:       2.541      -0.000       2.541      -0.000      -0.000       5.180

                      1
                     SG
 Frequencies --   4171.8445
 Red. masses --      1.0583
 Frc consts  --     10.8522
 IR Inten    --    128.9831

 - Thermochemistry -
 -------------------
 Temperature   298.150 Kelvin.  Pressure   1.00000 Atm.
 Atom     1 has atomic number  9 and mass  18.99840

 Molecular mass:    20.00623 amu.
 Principal axes and moments of inertia in atomic units:
                           1         2         3
     Eigenvalues --     0.00000   2.89443   2.89443
           X            0.00000  -0.00000   1.00000
           Y            0.00000   1.00000   0.00000
           Z            1.00000   0.00000   0.00000
 This molecule is a prolate symmetric top.
 Rotational symmetry number  1.
 Rotational temperature (Kelvin)     29.92434
 Rotational constant (GHZ):         623.522110
 Zero-point vibrational energy      24953.2 (Joules/Mol)
                                    5.96395 (Kcal/Mol)
 Vibrational temperatures:   6002.35
          (Kelvin)

 Zero-point correction=                           0.009504 (Hartree/Particle)
 Thermal correction to Energy=                    0.011865
 Thermal correction to Enthalpy=                  0.012809
 Thermal correction to Gibbs Free Energy=        -0.006898
 Sum of electronic and zero-point Energies=           -100.441658
 Sum of electronic and thermal Energies=              -100.439298
 Sum of electronic and thermal Enthalpies=            -100.438354
 Sum of electronic and thermal Free Energies=         -100.458061

                     E (Thermal)             CV                S
                      KCal/Mol        Cal/Mol-Kelvin    Cal/Mol-Kelvin
 Total                    7.445              4.968             41.477
 Electronic               0.000              0.000              0.000
 Translational            0.889              2.981             34.922
 Rotational               0.592              1.987              6.556
 Vibrational              5.964              0.000              0.000

 Optimization completed.
    -- Stationary point found.
 Normal termination of Gaussian 16 at Mon Jun 20 20:15:45 2022.
