 Gaussian 16, Revision C.01,
 Gaussian 16:  AS64L-G16RevC.01  3-Jul-2019

 -------------------------
 # opt freq M062X/def2tzvp
 -------------------------

 converted from /home/svss/projects/Project-Philicity/GS/hydrocarbon/se
 t-1/GS/mol_16_hc/mol_16_hc_cregen_best.xyz
 ----------------------------------------------------------------------
 Symbolic Z-matrix:
 Charge =  0 Multiplicity = 1

 SCF Done:  E(RM062X) =  -211.361166726     A.U. after   14 cycles
 SCF Done:  E(RM062X) =  -211.361566528     A.U. after   11 cycles
 SCF Done:  E(RM062X) =  -211.361587278     A.U. after    9 cycles
 SCF Done:  E(RM062X) =  -211.361588184     A.U. after    8 cycles
 Optimization completed.
    -- Stationary point found.
 Normal termination of Gaussian 16 at Mon Jun 20 17:42:28 2022.

 --------------------------------------------------------------------
 #N Geom=AllCheck Guess=TCheck SCRF=Check GenChk RM062X/def2TZVP Freq
 --------------------------------------------------------------------

 ----------------------------------------------------------------------
 converted from /home/svss/projects/Project-Philicity/GS/hydrocarbon/se
 t-1/GS/mol_16_hc/mol_16_hc_cregen_best.xyz
 ----------------------------------------------------------------------
 Charge =  0 Multiplicity = 1

                         Standard orientation:
 ---------------------------------------------------------------------
 Center     Atomic      Atomic             Coordinates (Angstroms)
 Number     Number       Type             X           Y           Z
 ---------------------------------------------------------------------
      1          6           0       -1.012326    1.268615   -0.145562
      2          6           0       -0.358102   -0.000013    0.407152
      3          6           0       -1.013076   -1.268191   -0.145639
      4          6           0        1.077536   -0.000566    0.102070
      5          7           0        2.194466   -0.000099   -0.156433
      6          1           0       -0.542984    2.164319    0.257871
      7          1           0       -2.069423    1.276817    0.119524
      8          1           0       -0.927438    1.294467   -1.232084
      9          1           0       -0.442949   -0.000013    1.496536
     10          1           0       -0.928244   -1.294020   -1.232166
     11          1           0       -0.544256   -2.164203    0.257718
     12          1           0       -2.070162   -1.275734    0.119505
 ---------------------------------------------------------------------

 SCF Done:  E(RM062X) =  -211.361588184     A.U. after    1 cycles

 The electronic state is 1-A.
 Alpha  occ. eigenvalues --  -14.74540 -10.59452 -10.56938 -10.55170 -10.55169
 Alpha  occ. eigenvalues --   -1.01674  -0.93058  -0.80533  -0.73656  -0.60002
 Alpha  occ. eigenvalues --   -0.54872  -0.51151  -0.47702  -0.47351  -0.44813
 Alpha  occ. eigenvalues --   -0.44090  -0.42890  -0.39130  -0.39042
 Alpha virt. eigenvalues --    0.04436   0.07297   0.08084   0.09514   0.11453
 Alpha virt. eigenvalues --    0.12023   0.12954   0.14538   0.15511   0.17572
 Alpha virt. eigenvalues --    0.18338   0.20548   0.20638   0.22392   0.25749

 Mulliken charges:
               1
     1  C   -0.413746
     2  C   -0.078580
     3  C   -0.413776
     4  C   -0.206848
     5  N    0.027789
     6  H    0.159512
     7  H    0.150567
     8  H    0.154760
     9  H    0.155496
    10  H    0.154762
    11  H    0.159504
    12  H    0.150561
 Sum of Mulliken charges =  -0.00000

 Dipole moment (field-independent basis, Debye):
    X=             -4.0665    Y=              0.0003    Z=              0.7449  Tot=              4.1342
 Quadrupole moment (field-independent basis, Debye-Ang):
   XX=            -39.8345   YY=            -30.3169   ZZ=            -30.5512
   XY=              0.0000   XZ=              0.7022   YZ=             -0.0001

  Exact polarizability:      60.596       0.002      48.106      -1.796      -0.000      42.288
 Approx polarizability:      72.124       0.007      52.785      -4.242      -0.001      53.077

                      1                      2                      3
                      A                      A                      A
 Frequencies --    188.8345               222.0864               224.4041
 Red. masses --      4.0342                 1.7575                 1.0342
 Frc consts  --      0.0848                 0.0511                 0.0307
 IR Inten    --      4.9395                 2.5304                 0.0138

                      4                      5                      6
                      A                      A                      A
 Frequencies --    291.6523               357.8839               561.7047
 Red. masses --      1.5278                 2.3434                 3.6979
 Frc consts  --      0.0766                 0.1768                 0.6874
 IR Inten    --      0.9242                 0.2656                 1.1203

                      7                      8                      9
                      A                      A                      A
 Frequencies --    586.5512               784.8895               943.0697
 Red. masses --      5.5549                 2.9393                 1.1374
 Frc consts  --      1.1260                 1.0669                 0.5960
 IR Inten    --      0.0002                 0.7773                 1.9513

                     10                     11                     12
                      A                      A                      A
 Frequencies --    944.1201               982.7628              1133.5039
 Red. masses --      2.2054                 1.4801                 1.5850
 Frc consts  --      1.1582                 0.8422                 1.1998
 IR Inten    --      0.6150                 0.2749                 5.0132

                     13                     14                     15
                      A                      A                      A
 Frequencies --   1145.9476              1200.5480              1329.3918
 Red. masses --      2.3250                 1.7681                 1.3853
 Frc consts  --      1.7989                 1.5014                 1.4424
 IR Inten    --      1.9384                 2.6026                 0.1288

                     16                     17                     18
                      A                      A                      A
 Frequencies --   1356.1753              1403.0969              1424.8624
 Red. masses --      1.4916                 1.2293                 1.2262
 Frc consts  --      1.6163                 1.4259                 1.4667
 IR Inten    --      6.4354                 4.6937                 3.7913

                     19                     20                     21
                      A                      A                      A
 Frequencies --   1490.0140              1491.1696              1503.2968
 Red. masses --      1.0392                 1.0477                 1.0439
 Frc consts  --      1.3593                 1.3726                 1.3899
 IR Inten    --      0.7236                 3.7352                 8.8570

                     22                     23                     24
                      A                      A                      A
 Frequencies --   1513.0970              2411.8518              3074.2226
 Red. masses --      1.0555                12.6634                 1.0343
 Frc consts  --      1.4237                43.4012                 5.7592
 IR Inten    --     11.9834                11.6173                12.0041

                     25                     26                     27
                      A                      A                      A
 Frequencies --   3074.3423              3082.3511              3150.2375
 Red. masses --      1.0413                 1.0763                 1.1038
 Frc consts  --      5.7989                 6.0250                 6.4540
 IR Inten    --      9.5011                 4.9360                 0.3164

                     28                     29                     30
                      A                      A                      A
 Frequencies --   3154.3179              3159.7464              3160.5602
 Red. masses --      1.1028                 1.1036                 1.1036
 Frc consts  --      6.4647                 6.4919                 6.4950
 IR Inten    --     23.5438                 9.1171                12.6894

 - Thermochemistry -
 -------------------
 Temperature   298.150 Kelvin.  Pressure   1.00000 Atm.
 Atom     1 has atomic number  6 and mass  12.00000

 Molecular mass:    69.05785 amu.
 Principal axes and moments of inertia in atomic units:
                           1         2         3
     Eigenvalues --   225.51791 451.09609 616.34748
           X            0.99997   0.00003   0.00791
           Y           -0.00003   1.00000   0.00000
           Z           -0.00791  -0.00000   0.99997
 This molecule is an asymmetric top.
 Rotational symmetry number  1.
 Rotational temperatures (Kelvin)      0.38407     0.19201     0.14053
 Rotational constants (GHZ):           8.00265     4.00079     2.92812
 Zero-point vibrational energy     271233.5 (Joules/Mol)
                                   64.82635 (Kcal/Mol)
 Warning -- explicit consideration of   7 degrees of freedom as
           vibrations may cause significant error
 Vibrational temperatures:    271.69   319.53   322.87   419.62   514.92
          (Kelvin)            808.17   843.92  1129.28  1356.87  1358.38
                             1413.98  1630.86  1648.76  1727.32  1912.70
                             1951.23  2018.74  2050.06  2143.80  2145.46
                             2162.91  2177.01  3470.12  4423.12  4423.29
                             4434.82  4532.49  4538.36  4546.17  4547.34

 Zero-point correction=                           0.103307 (Hartree/Particle)
 Thermal correction to Energy=                    0.109228
 Thermal correction to Enthalpy=                  0.110172
 Thermal correction to Gibbs Free Energy=         0.074642
 Sum of electronic and zero-point Energies=           -211.258281
 Sum of electronic and thermal Energies=              -211.252360
 Sum of electronic and thermal Enthalpies=            -211.251416
 Sum of electronic and thermal Free Energies=         -211.286946

                     E (Thermal)             CV                S
                      KCal/Mol        Cal/Mol-Kelvin    Cal/Mol-Kelvin
 Total                   68.541             20.273             74.780
 Electronic               0.000              0.000              0.000
 Translational            0.889              2.981             38.614
 Rotational               0.889              2.981             25.642
 Vibrational             66.764             14.311             10.523
 Vibration     1          0.633              1.855              2.239
 Vibration     2          0.648              1.807              1.942
 Vibration     3          0.649              1.804              1.923
 Vibration     4          0.687              1.689              1.464
 Vibration     5          0.733              1.559              1.131
 Vibration     6          0.917              1.114              0.520
 Vibration     7          0.944              1.060              0.473

 Optimization completed.
    -- Stationary point found.
 Normal termination of Gaussian 16 at Mon Jun 20 17:44:53 2022.
