 Gaussian 16, Revision C.01,
 Gaussian 16:  AS64L-G16RevC.01  3-Jul-2019

 -------------------------
 # opt freq M062X/def2tzvp
 -------------------------

 converted from /home/svss/projects/Project-Philicity/GS/hydrocarbon/se
 t-1/GS/mol_3_hc/mol_3_hc_cregen_best.xyz
 ----------------------------------------------------------------------
 Symbolic Z-matrix:
 Charge =  0 Multiplicity = 1

 SCF Done:  E(RM062X) =  -115.715130529     A.U. after   12 cycles
 SCF Done:  E(RM062X) =  -115.715200897     A.U. after    8 cycles
 SCF Done:  E(RM062X) =  -115.715204517     A.U. after    7 cycles
 Optimization completed.
    -- Stationary point found.
 Normal termination of Gaussian 16 at Mon Jun 20 16:10:33 2022.

 --------------------------------------------------------------------
 #N Geom=AllCheck Guess=TCheck SCRF=Check GenChk RM062X/def2TZVP Freq
 --------------------------------------------------------------------

 ----------------------------------------------------------------------
 converted from /home/svss/projects/Project-Philicity/GS/hydrocarbon/se
 t-1/GS/mol_3_hc/mol_3_hc_cregen_best.xyz
 ----------------------------------------------------------------------
 Charge =  0 Multiplicity = 1

                         Standard orientation:
 ---------------------------------------------------------------------
 Center     Atomic      Atomic             Coordinates (Angstroms)
 Number     Number       Type             X           Y           Z
 ---------------------------------------------------------------------
      1          6           0       -0.661326   -0.020398    0.000006
      2          8           0        0.743646    0.122313   -0.000007
      3          1           0       -1.081934    0.983244   -0.000073
      4          1           0       -1.021641   -0.544815   -0.889926
      5          1           0       -1.021637   -0.544673    0.890023
      6          1           0        1.144000   -0.749875   -0.000006
 ---------------------------------------------------------------------

 SCF Done:  E(RM062X) =  -115.715204517     A.U. after    1 cycles

 The electronic state is 1-A.
 Alpha  occ. eigenvalues --  -19.62103 -10.57547  -1.14241  -0.77543  -0.58575
 Alpha  occ. eigenvalues --   -0.51636  -0.49917  -0.40818  -0.35328
 Alpha virt. eigenvalues --    0.06260   0.10684   0.15255   0.15615   0.17353
 Alpha virt. eigenvalues --    0.24964   0.25815   0.35642   0.39766   0.44106
 Alpha virt. eigenvalues --    0.49144   0.49335   0.52409   0.55200   0.56366

 Mulliken charges:
               1
     1  C   -0.207052
     2  O   -0.476917
     3  H    0.133491
     4  H    0.119011
     5  H    0.119011
     6  H    0.312456
 Sum of Mulliken charges =   0.00000

 Dipole moment (field-independent basis, Debye):
    X=             -0.8021    Y=             -1.5358    Z=              0.0000  Tot=              1.7326
 Quadrupole moment (field-independent basis, Debye-Ang):
   XX=            -12.8709   YY=            -12.2254   ZZ=            -13.8009
   XY=             -2.2921   XZ=              0.0000   YZ=              0.0000

  Exact polarizability:      19.780      -0.675      18.224      -0.000      -0.000      17.000
 Approx polarizability:      20.471      -0.680      20.173      -0.000      -0.000      18.204

                      1                      2                      3
                      A                      A                      A
 Frequencies --    315.4432              1071.6524              1118.1025
 Red. masses --      1.0713                 1.2184                 4.0757
 Frc consts  --      0.0628                 0.8245                 3.0020
 IR Inten    --    123.0982                81.9445                43.5804

                      4                      5                      6
                      A                      A                      A
 Frequencies --   1182.3254              1372.7781              1488.2015
 Red. masses --      1.2716                 1.2960                 1.1481
 Frc consts  --      1.0473                 1.4389                 1.4981
 IR Inten    --      0.5624                26.7574                 4.0396

                      7                      8                      9
                      A                      A                      A
 Frequencies --   1507.4137              1519.4920              3034.1552
 Red. masses --      1.0458                 1.0429                 1.0355
 Frc consts  --      1.4001                 1.4186                 5.6166
 IR Inten    --      2.7610                 4.2484                50.4522

                     10                     11                     12
                      A                      A                      A
 Frequencies --   3087.1482              3149.3699              3895.2463
 Red. masses --      1.1053                 1.0990                 1.0666
 Frc consts  --      6.2067                 6.4223                 9.5352
 IR Inten    --     50.8173                22.7930                40.5655

 - Thermochemistry -
 -------------------
 Temperature   298.150 Kelvin.  Pressure   1.00000 Atm.
 Atom     1 has atomic number  6 and mass  12.00000

 Molecular mass:    32.02621 amu.
 Principal axes and moments of inertia in atomic units:
                           1         2         3
     Eigenvalues --    14.00885  72.16053  74.76693
           X            0.99894  -0.04609   0.00001
           Y            0.04609   0.99894   0.00000
           Z           -0.00001  -0.00000   1.00000
 This molecule is an asymmetric top.
 Rotational symmetry number  1.
 Rotational temperatures (Kelvin)      6.18280     1.20029     1.15845
 Rotational constants (GHZ):         128.82867    25.01009    24.13823
 Zero-point vibrational energy     136023.4 (Joules/Mol)
                                   32.51036 (Kcal/Mol)
 Warning -- explicit consideration of   1 degrees of freedom as
           vibrations may cause significant error
 Vibrational temperatures:    453.85  1541.87  1608.70  1701.10  1975.12
          (Kelvin)           2141.19  2168.83  2186.21  4365.47  4441.72
                             4531.24  5604.39

 Zero-point correction=                           0.051809 (Hartree/Particle)
 Thermal correction to Energy=                    0.055134
 Thermal correction to Enthalpy=                  0.056078
 Thermal correction to Gibbs Free Energy=         0.029068
 Sum of electronic and zero-point Energies=           -115.663396
 Sum of electronic and thermal Energies=              -115.660070
 Sum of electronic and thermal Enthalpies=            -115.659126
 Sum of electronic and thermal Free Energies=         -115.686137

                     E (Thermal)             CV                S
                      KCal/Mol        Cal/Mol-Kelvin    Cal/Mol-Kelvin
 Total                   34.597              8.730             56.849
 Electronic               0.000              0.000              0.000
 Translational            0.889              2.981             36.324
 Rotational               0.889              2.981             18.964
 Vibrational             32.820              2.768              1.561
 Vibration     1          0.703              1.644              1.334

 Optimization completed.
    -- Stationary point found.
 Normal termination of Gaussian 16 at Mon Jun 20 16:10:47 2022.
