 Gaussian 16, Revision C.01,
 Gaussian 16:  AS64L-G16RevC.01  3-Jul-2019

 -------------------------
 # opt freq M062X/def2tzvp
 -------------------------

 converted from /home/svss/projects/Project-Philicity/GS/hydrocarbon/se
 t-1/GS/mol_30_hc/mol_30_hc_cregen_best.xyz
 ----------------------------------------------------------------------
 Symbolic Z-matrix:
 Charge =  0 Multiplicity = 1

 SCF Done:  E(RM062X) =  -76.4260169181     A.U. after   11 cycles
 SCF Done:  E(RM062X) =  -76.4260812925     A.U. after    7 cycles
 SCF Done:  E(RM062X) =  -76.4260828031     A.U. after    7 cycles
 Optimization completed.
    -- Stationary point found.
 Normal termination of Gaussian 16 at Mon Jun 20 19:43:59 2022.

 --------------------------------------------------------------------
 #N Geom=AllCheck Guess=TCheck SCRF=Check GenChk RM062X/def2TZVP Freq
 --------------------------------------------------------------------

 ----------------------------------------------------------------------
 converted from /home/svss/projects/Project-Philicity/GS/hydrocarbon/se
 t-1/GS/mol_30_hc/mol_30_hc_cregen_best.xyz
 ----------------------------------------------------------------------
 Charge =  0 Multiplicity = 1

                         Standard orientation:
 ---------------------------------------------------------------------
 Center     Atomic      Atomic             Coordinates (Angstroms)
 Number     Number       Type             X           Y           Z
 ---------------------------------------------------------------------
      1          8           0        0.000000    0.000000    0.116194
      2          1           0       -0.000000    0.764324   -0.464775
      3          1           0       -0.000000   -0.764324   -0.464775
 ---------------------------------------------------------------------

 SCF Done:  E(RM062X) =  -76.4260828031     A.U. after    1 cycles

 The electronic state is 1-A1.
 Alpha  occ. eigenvalues --  -19.62205  -1.13218  -0.60861  -0.46987  -0.39857
 Alpha virt. eigenvalues --    0.05365   0.12242   0.40980   0.45544   0.48241
 Alpha virt. eigenvalues --    0.49577   0.62204   0.63845   1.22361   1.24083
 Alpha virt. eigenvalues --    1.35138   1.57105   1.68107   1.79588   2.02350

 Mulliken charges:
               1
     1  O   -0.657114
     2  H    0.328557
     3  H    0.328557
 Sum of Mulliken charges =   0.00000

 Dipole moment (field-independent basis, Debye):
    X=             -0.0000    Y=             -0.0000    Z=             -2.0905  Tot=              2.0905
 Quadrupole moment (field-independent basis, Debye-Ang):
   XX=             -7.5602   YY=             -4.2872   ZZ=             -6.3045
   XY=              0.0000   XZ=              0.0000   YZ=             -0.0000

  Exact polarizability:       5.212      -0.000       8.022      -0.000      -0.000       6.498
 Approx polarizability:       4.891       0.000       8.427       0.000       0.000       6.632

                      1                      2                      3
                     A1                     A1                     B2
 Frequencies --   1608.0719              3864.7291              3971.4884
 Red. masses --      1.0832                 1.0447                 1.0829
 Frc consts  --      1.6504                 9.1931                10.0631
 IR Inten    --     86.2783                11.5750                66.4202

 - Thermochemistry -
 -------------------
 Temperature   298.150 Kelvin.  Pressure   1.00000 Atm.
 Atom     1 has atomic number  8 and mass  15.99491

 Molecular mass:    18.01056 amu.
 Principal axes and moments of inertia in atomic units:
                           1         2         3
     Eigenvalues --     2.15761   4.20502   6.36263
           X            0.00000   0.00000   1.00000
           Y            1.00000   0.00000  -0.00000
           Z            0.00000   1.00000   0.00000
 This molecule is an asymmetric top.
 Rotational symmetry number  2.
 Rotational temperatures (Kelvin)     40.14342    20.59773    13.61290
 Rotational constants (GHZ):         836.45303   429.18707   283.64685
 Zero-point vibrational energy      56489.4 (Joules/Mol)
                                   13.50129 (Kcal/Mol)
 Vibrational temperatures:   2313.66  5560.48  5714.09
          (Kelvin)

 Zero-point correction=                           0.021516 (Hartree/Particle)
 Thermal correction to Energy=                    0.024351
 Thermal correction to Enthalpy=                  0.025296
 Thermal correction to Gibbs Free Energy=         0.003881
 Sum of electronic and zero-point Energies=            -76.404567
 Sum of electronic and thermal Energies=               -76.401731
 Sum of electronic and thermal Enthalpies=             -76.400787
 Sum of electronic and thermal Free Energies=          -76.422202

                     E (Thermal)             CV                S
                      KCal/Mol        Cal/Mol-Kelvin    Cal/Mol-Kelvin
 Total                   15.281              6.013             45.071
 Electronic               0.000              0.000              0.000
 Translational            0.889              2.981             34.608
 Rotational               0.889              2.981             10.455
 Vibrational             13.503              0.051              0.007

 Optimization completed.
    -- Stationary point found.
 Normal termination of Gaussian 16 at Mon Jun 20 19:44:03 2022.
