 Gaussian 16, Revision C.01,
 Gaussian 16:  AS64L-G16RevC.01  3-Jul-2019

 -------------------------
 # opt freq M062X/def2tzvp
 -------------------------

 converted from /home/svss/projects/Project-Philicity/GS/hydrocarbon/se
 t-1/GS/mol_11_hc/mol_11_hc_cregen_best.xyz
 ----------------------------------------------------------------------
 Symbolic Z-matrix:
 Charge =  0 Multiplicity = 1

 SCF Done:  E(RM062X) =  -370.788469441     A.U. after   14 cycles
 SCF Done:  E(RM062X) =  -370.788742226     A.U. after   10 cycles
 SCF Done:  E(RM062X) =  -370.788750565     A.U. after    8 cycles
 Optimization completed.
    -- Stationary point found.
 Normal termination of Gaussian 16 at Mon Jun 20 17:04:05 2022.

 --------------------------------------------------------------------
 #N Geom=AllCheck Guess=TCheck SCRF=Check GenChk RM062X/def2TZVP Freq
 --------------------------------------------------------------------

 ----------------------------------------------------------------------
 converted from /home/svss/projects/Project-Philicity/GS/hydrocarbon/se
 t-1/GS/mol_11_hc/mol_11_hc_cregen_best.xyz
 ----------------------------------------------------------------------
 Charge =  0 Multiplicity = 1

                         Standard orientation:
 ---------------------------------------------------------------------
 Center     Atomic      Atomic             Coordinates (Angstroms)
 Number     Number       Type             X           Y           Z
 ---------------------------------------------------------------------
      1          6           0       -2.856929   -0.000084    0.012655
      2          6           0       -1.352443    0.000264   -0.011321
      3          6           0       -0.637500   -1.194576   -0.009681
      4          6           0        0.749832   -1.207153   -0.001594
      5          6           0        1.418912   -0.000019    0.003403
      6          9           0        2.762231   -0.000213    0.008390
      7          6           0        0.750125    1.207147   -0.001593
      8          6           0       -0.637337    1.194857   -0.009678
      9          1           0       -3.258305    0.889212   -0.472346
     10          1           0       -3.228836   -0.013348    1.039525
     11          1           0       -3.258233   -0.876845   -0.494837
     12          1           0       -1.174372   -2.135798   -0.017447
     13          1           0        1.312609   -2.130679   -0.003054
     14          1           0        1.313074    2.130566   -0.003059
     15          1           0       -1.173967    2.136193   -0.017429
 ---------------------------------------------------------------------

 SCF Done:  E(RM062X) =  -370.788750565     A.U. after    1 cycles

 The electronic state is 1-A.
 Alpha  occ. eigenvalues --  -25.25174 -10.62304 -10.55286 -10.54881 -10.54871
 Alpha  occ. eigenvalues --  -10.54746 -10.54744 -10.53666  -1.36859  -0.97543
 Alpha  occ. eigenvalues --   -0.87822  -0.85678  -0.78279  -0.71461  -0.68323
 Alpha  occ. eigenvalues --   -0.62853  -0.58095  -0.56617  -0.54991  -0.51251
 Alpha  occ. eigenvalues --   -0.50125  -0.49709  -0.49471  -0.44773  -0.42623
 Alpha  occ. eigenvalues --   -0.42530  -0.40607  -0.31924  -0.29506
 Alpha virt. eigenvalues --    0.01141   0.02892   0.07298   0.09507   0.10308
 Alpha virt. eigenvalues --    0.12309   0.13748   0.14757   0.15434   0.16225
 Alpha virt. eigenvalues --    0.17758   0.18399   0.20811   0.22014   0.22018

 Mulliken charges:
               1
     1  C   -0.472216
     2  C    0.102933
     3  C   -0.160580
     4  C   -0.211763
     5  C    0.270485
     6  F   -0.208688
     7  C   -0.212013
     8  C   -0.160557
     9  H    0.145273
    10  H    0.158711
    11  H    0.145869
    12  H    0.149246
    13  H    0.152110
    14  H    0.152096
    15  H    0.149094
 Sum of Mulliken charges =  -0.00000

 Dipole moment (field-independent basis, Debye):
    X=             -1.9505    Y=             -0.0016    Z=              0.0273  Tot=              1.9507
 Quadrupole moment (field-independent basis, Debye-Ang):
   XX=            -48.0522   YY=            -41.1594   ZZ=            -49.5455
   XY=              0.0036   XZ=             -0.0758   YZ=              0.0001

  Exact polarizability:      99.043       0.022      84.524      -0.376       0.000      48.011
 Approx polarizability:     119.767       0.032     113.529      -0.313      -0.000      64.309

                      1                      2                      3
                      A                      A                      A
 Frequencies --     36.9616               147.8193               311.8999
 Red. masses --      1.0369                 4.4952                 3.2379
 Frc consts  --      0.0008                 0.0579                 0.1856
 IR Inten    --      0.2312                 0.0560                 0.1055

                      4                      5                      6
                      A                      A                      A
 Frequencies --    345.1981               427.1063               432.0325
 Red. masses --      4.5068                 3.1357                 4.0162
 Frc consts  --      0.3164                 0.3370                 0.4417
 IR Inten    --      3.3228                 0.2690                 2.1333

                      7                      8                      9
                      A                      A                      A
 Frequencies --    462.2748               517.9992               653.0405
 Red. masses --      6.9577                 2.3848                 6.9233
 Frc consts  --      0.8760                 0.3770                 1.7396
 IR Inten    --      4.5060                18.5185                 0.0002

                     10                     11                     12
                      A                      A                      A
 Frequencies --    722.0560               748.7586               845.9739
 Red. masses --      3.0694                 4.5120                 1.2462
 Frc consts  --      0.9428                 1.4904                 0.5255
 IR Inten    --      1.0910                11.9576                 0.0230

                     13                     14                     15
                      A                      A                      A
 Frequencies --    851.7442               869.2392               962.5967
 Red. masses --      1.5515                 6.0208                 1.3159
 Frc consts  --      0.6632                 2.6803                 0.7184
 IR Inten    --     57.1385                11.2482                 2.0595

                     16                     17                     18
                      A                      A                      A
 Frequencies --    983.7851              1010.9145              1039.3664
 Red. masses --      1.3481                 1.3872                 2.4404
 Frc consts  --      0.7688                 0.8353                 1.5533
 IR Inten    --      0.0005                 0.0063                 2.8200

                     19                     20                     21
                      A                      A                      A
 Frequencies --   1068.3272              1121.7921              1180.8999
 Red. masses --      1.5473                 1.2419                 1.1723
 Frc consts  --      1.0405                 0.9208                 0.9632
 IR Inten    --      7.3727                 9.3928                 7.7407

                     22                     23                     24
                      A                      A                      A
 Frequencies --   1244.3152              1292.1259              1312.1465
 Red. masses --      2.3385                 5.5934                 5.1191
 Frc consts  --      2.1333                 5.5022                 5.1929
 IR Inten    --      7.0463               101.5321                 0.0124

                     25                     26                     27
                      A                      A                      A
 Frequencies --   1325.5654              1415.5162              1453.1537
 Red. masses --      1.4042                 1.2728                 2.4902
 Frc consts  --      1.4537                 1.5026                 3.0982
 IR Inten    --      1.3801                 0.5496                 0.2745

                     28                     29                     30
                      A                      A                      A
 Frequencies --   1491.9364              1500.6636              1568.6196
 Red. masses --      1.0471                 1.1784                 3.0465
 Frc consts  --      1.3733                 1.5635                 4.4165
 IR Inten    --      7.1630                 7.9977               131.6625

                     31                     32                     33
                      A                      A                      A
 Frequencies --   1672.6913              1689.3331              3065.2311
 Red. masses --      7.1765                 6.5923                 1.0381
 Frc consts  --     11.8303                11.0845                 5.7469
 IR Inten    --      6.2208                22.3657                20.3875

                     34                     35                     36
                      A                      A                      A
 Frequencies --   3127.6918              3151.2746              3201.5166
 Red. masses --      1.0982                 1.1029                 1.0898
 Frc consts  --      6.3294                 6.4530                 6.5814
 IR Inten    --     10.6316                10.0798                 7.4392

                     37                     38                     39
                      A                      A                      A
 Frequencies --   3201.8433              3235.0570              3235.2123
 Red. masses --      1.0896                 1.0940                 1.0943
 Frc consts  --      6.5811                 6.7461                 6.7482
 IR Inten    --      6.0932                 0.7502                 1.1773

 - Thermochemistry -
 -------------------
 Temperature   298.150 Kelvin.  Pressure   1.00000 Atm.
 Atom     1 has atomic number  6 and mass  12.00000

 Molecular mass:   110.05318 amu.
 Principal axes and moments of inertia in atomic units:
                           1         2         3
     Eigenvalues --   323.953731252.178771564.93031
           X            1.00000   0.00002  -0.00057
           Y           -0.00002   1.00000   0.00000
           Z            0.00057  -0.00000   1.00000
 This molecule is an asymmetric top.
 Rotational symmetry number  1.
 Rotational temperatures (Kelvin)      0.26737     0.06917     0.05535
 Rotational constants (GHZ):           5.57098     1.44128     1.15324
 Zero-point vibrational energy     316553.9 (Joules/Mol)
                                   75.65820 (Kcal/Mol)
 Warning -- explicit consideration of   8 degrees of freedom as
           vibrations may cause significant error
 Vibrational temperatures:     53.18   212.68   448.75   496.66   614.51
          (Kelvin)            621.60   665.11   745.29   939.58  1038.88
                             1077.30  1217.17  1225.47  1250.64  1384.96
                             1415.45  1454.48  1495.42  1537.08  1614.01
                             1699.05  1790.29  1859.08  1887.89  1907.19
                             2036.61  2090.76  2146.56  2159.12  2256.89
                             2406.63  2430.57  4410.18  4500.05  4533.98
                             4606.27  4606.74  4654.53  4654.75

 Zero-point correction=                           0.120569 (Hartree/Particle)
 Thermal correction to Energy=                    0.127530
 Thermal correction to Enthalpy=                  0.128474
 Thermal correction to Gibbs Free Energy=         0.088641
 Sum of electronic and zero-point Energies=           -370.668182
 Sum of electronic and thermal Energies=              -370.661221
 Sum of electronic and thermal Enthalpies=            -370.660276
 Sum of electronic and thermal Free Energies=         -370.700109

                     E (Thermal)             CV                S
                      KCal/Mol        Cal/Mol-Kelvin    Cal/Mol-Kelvin
 Total                   80.026             25.970             83.835
 Electronic               0.000              0.000              0.000
 Translational            0.889              2.981             40.004
 Rotational               0.889              2.981             27.942
 Vibrational             78.249             20.008             15.890
 Vibration     1          0.594              1.982              5.416
 Vibration     2          0.617              1.905              2.700
 Vibration     3          0.700              1.651              1.352
 Vibration     4          0.724              1.585              1.188
 Vibration     5          0.789              1.411              0.868
 Vibration     6          0.793              1.400              0.852
 Vibration     7          0.820              1.334              0.760
 Vibration     8          0.873              1.210              0.615

                           ! Non-Optimized Parameters !
 Normal termination of Gaussian 16 at Mon Jun 20 17:10:32 2022.
