 Gaussian 16, Revision C.01,
 Gaussian 16:  AS64L-G16RevC.01  3-Jul-2019

 -------------------------
 # opt freq M062X/def2tzvp
 -------------------------

 converted from /home/svss/projects/Project-Philicity/GS/hydrocarbon/se
 t-1/GS/mol_19_hc/mol_19_hc_cregen_best.xyz
 ----------------------------------------------------------------------
 Symbolic Z-matrix:
 Charge =  0 Multiplicity = 1

 SCF Done:  E(RM062X) =  -1.16763611916     A.U. after    8 cycles
 SCF Done:  E(RM062X) =  -1.16845955082     A.U. after    7 cycles
 SCF Done:  E(RM062X) =  -1.16845983786     A.U. after    4 cycles
 Optimization completed.
    -- Stationary point found.
 Normal termination of Gaussian 16 at Mon Jun 20 17:52:31 2022.

 --------------------------------------------------------------------
 #N Geom=AllCheck Guess=TCheck SCRF=Check GenChk RM062X/def2TZVP Freq
 --------------------------------------------------------------------

 ----------------------------------------------------------------------
 converted from /home/svss/projects/Project-Philicity/GS/hydrocarbon/se
 t-1/GS/mol_19_hc/mol_19_hc_cregen_best.xyz
 ----------------------------------------------------------------------
 Charge =  0 Multiplicity = 1

                         Standard orientation:
 ---------------------------------------------------------------------
 Center     Atomic      Atomic             Coordinates (Angstroms)
 Number     Number       Type             X           Y           Z
 ---------------------------------------------------------------------
      1          1           0        0.000000    0.000000    0.370081
      2          1           0        0.000000    0.000000   -0.370081
 ---------------------------------------------------------------------

 SCF Done:  E(RM062X) =  -1.16845983786     A.U. after    1 cycles

 The electronic state is 1-SGG.
 Alpha  occ. eigenvalues --   -0.49626
 Alpha virt. eigenvalues --    0.10776   0.24245   0.56718   1.34935   1.34935
 Alpha virt. eigenvalues --    1.66053   1.97983   1.97983   2.12843   2.53353
 Alpha virt. eigenvalues --    3.96780

 Mulliken charges:
               1
     1  H   -0.000000
     2  H   -0.000000
 Sum of Mulliken charges =  -0.00000

 Dipole moment (field-independent basis, Debye):
    X=             -0.0000    Y=             -0.0000    Z=             -0.0000  Tot=              0.0000
 Quadrupole moment (field-independent basis, Debye-Ang):
   XX=             -2.0741   YY=             -2.0741   ZZ=             -1.5139
   XY=             -0.0000   XZ=             -0.0000   YZ=              0.0000

  Exact polarizability:       1.049       0.000       1.049       0.000      -0.000       6.780
 Approx polarizability:       0.910      -0.000       0.910      -0.000      -0.000       6.355

                      1
                     SGG
 Frequencies --   4476.8419
 Red. masses --      1.0078
 Frc consts  --     11.9009
 IR Inten    --      0.0000

 - Thermochemistry -
 -------------------
 Temperature   298.150 Kelvin.  Pressure   1.00000 Atm.
 Atom     1 has atomic number  1 and mass   1.00783

 Molecular mass:     2.01565 amu.
 Principal axes and moments of inertia in atomic units:
                           1         2         3
     Eigenvalues --     0.00000   0.98584   0.98584
           X           -0.00000   1.00000  -0.00000
           Y            0.00000   0.00000   1.00000
           Z            1.00000   0.00000  -0.00000
 This molecule is a prolate symmetric top.
 Rotational symmetry number  2.
 Rotational temperature (Kelvin)     87.85785
 Rotational constant (GHZ):        1830.660389
 Zero-point vibrational energy      26777.5 (Joules/Mol)
                                    6.39997 (Kcal/Mol)
 Vibrational temperatures:   6441.18
          (Kelvin)

 Zero-point correction=                           0.010199 (Hartree/Particle)
 Thermal correction to Energy=                    0.012559
 Thermal correction to Enthalpy=                  0.013504
 Thermal correction to Gibbs Free Energy=        -0.001282
 Sum of electronic and zero-point Energies=             -1.158261
 Sum of electronic and thermal Energies=                -1.155900
 Sum of electronic and thermal Enthalpies=              -1.154956
 Sum of electronic and thermal Free Energies=           -1.169741

                     E (Thermal)             CV                S
                      KCal/Mol        Cal/Mol-Kelvin    Cal/Mol-Kelvin
 Total                    7.881              4.968             31.118
 Electronic               0.000              0.000              0.000
 Translational            0.889              2.981             28.080
 Rotational               0.592              1.987              3.038
 Vibrational              6.400              0.000              0.000

 Optimization completed.
    -- Stationary point found.
 Normal termination of Gaussian 16 at Mon Jun 20 17:52:33 2022.
