 Gaussian 16, Revision C.01,
 Gaussian 16:  AS64L-G16RevC.01  3-Jul-2019

 -------------------------
 # opt freq M062X/def2tzvp
 -------------------------

 converted from /home/svss/projects/Project-Philicity/GS/hydrocarbon/se
 t-1/GS/mol_4_hc/mol_4_hc_cregen_best.xyz
 ----------------------------------------------------------------------
 Symbolic Z-matrix:
 Charge =  0 Multiplicity = 1

 SCF Done:  E(RM062X) =  -79.8043007790     A.U. after   10 cycles
 SCF Done:  E(RM062X) =  -79.8044302984     A.U. after    8 cycles
 SCF Done:  E(RM062X) =  -79.8044367726     A.U. after    7 cycles
 SCF Done:  E(RM062X) =  -79.8044378080     A.U. after    6 cycles
 Optimization completed.
    -- Stationary point found.
 Normal termination of Gaussian 16 at Mon Jun 20 16:11:34 2022.

 --------------------------------------------------------------------
 #N Geom=AllCheck Guess=TCheck SCRF=Check GenChk RM062X/def2TZVP Freq
 --------------------------------------------------------------------

 ----------------------------------------------------------------------
 converted from /home/svss/projects/Project-Philicity/GS/hydrocarbon/se
 t-1/GS/mol_4_hc/mol_4_hc_cregen_best.xyz
 ----------------------------------------------------------------------
 Charge =  0 Multiplicity = 1

                         Standard orientation:
 ---------------------------------------------------------------------
 Center     Atomic      Atomic             Coordinates (Angstroms)
 Number     Number       Type             X           Y           Z
 ---------------------------------------------------------------------
      1          6           0        0.761776   -0.000005    0.000007
      2          6           0       -0.761776    0.000005   -0.000007
      3          1           0        1.156769    0.015407   -1.016209
      4          1           0        1.156784    0.872385    0.521433
      5          1           0        1.156754   -0.887796    0.494747
      6          1           0       -1.156769   -0.015406    1.016209
      7          1           0       -1.156754    0.887795   -0.494748
      8          1           0       -1.156783   -0.872386   -0.521433
 ---------------------------------------------------------------------

 SCF Done:  E(RM062X) =  -79.8044378080     A.U. after    1 cycles

 The electronic state is 1-A.
 Alpha  occ. eigenvalues --  -10.52016 -10.51979  -0.84904  -0.70015  -0.50275
 Alpha  occ. eigenvalues --   -0.50275  -0.42747  -0.40268  -0.40267
 Alpha virt. eigenvalues --    0.07557   0.11541   0.14708   0.14708   0.15794
 Alpha virt. eigenvalues --    0.15794   0.22808   0.23399   0.27505   0.27505
 Alpha virt. eigenvalues --    0.28008   0.28009   0.42443   0.45069   0.47172

 Mulliken charges:
               1
     1  C   -0.390164
     2  C   -0.390164
     3  H    0.130058
     4  H    0.130053
     5  H    0.130053
     6  H    0.130058
     7  H    0.130053
     8  H    0.130053
 Sum of Mulliken charges =   0.00000

 Dipole moment (field-independent basis, Debye):
    X=             -0.0000    Y=             -0.0000    Z=             -0.0000  Tot=              0.0000
 Quadrupole moment (field-independent basis, Debye-Ang):
   XX=            -15.6890   YY=            -14.9357   ZZ=            -14.9361
   XY=              0.0000   XZ=             -0.0001   YZ=             -0.0000

  Exact polarizability:      28.614       0.002      25.469      -0.030       0.000      25.529
 Approx polarizability:      28.893       0.000      29.054      -0.000       0.000      29.054

                      1                      2                      3
                      A                      A                      A
 Frequencies --    309.8098               823.3594               824.7583
 Red. masses --      1.0078                 1.0581                 1.0582
 Frc consts  --      0.0570                 0.4226                 0.4241
 IR Inten    --      0.0002                 3.8492                 3.8850

                      4                      5                      6
                      A                      A                      A
 Frequencies --   1022.0505              1221.2096              1221.7862
 Red. masses --      3.1263                 1.4685                 1.4689
 Frc consts  --      1.9241                 1.2904                 1.2919
 IR Inten    --      0.0000                 0.0000                 0.0000

                      7                      8                      9
                      A                      A                      A
 Frequencies --   1405.3085              1424.8003              1506.2193
 Red. masses --      1.1983                 1.2764                 1.0174
 Frc consts  --      1.3943                 1.5266                 1.3599
 IR Inten    --      2.1143                 0.0000                 0.0000

                     10                     11                     12
                      A                      A                      A
 Frequencies --   1506.4825              1508.2032              1508.6369
 Red. masses --      1.0175                 1.0614                 1.0615
 Frc consts  --      1.3606                 1.4225                 1.4235
 IR Inten    --      0.0000                11.0673                11.0473

                     13                     14                     15
                      A                      A                      A
 Frequencies --   3067.7430              3069.5473              3124.3440
 Red. masses --      1.0368                 1.0341                 1.1018
 Frc consts  --      5.7491                 5.7405                 6.3368
 IR Inten    --      0.0000                49.6055                 0.0000

                     16                     17                     18
                      A                      A                      A
 Frequencies --   3124.4869              3147.7745              3147.8575
 Red. masses --      1.1019                 1.1030                 1.1030
 Frc consts  --      6.3377                 6.4390                 6.4393
 IR Inten    --      0.0000                48.1556                47.8187

 - Thermochemistry -
 -------------------
 Temperature   298.150 Kelvin.  Pressure   1.00000 Atm.
 Atom     1 has atomic number  6 and mass  12.00000

 Molecular mass:    30.04695 amu.
 Principal axes and moments of inertia in atomic units:
                           1         2         3
     Eigenvalues --    22.30538  89.78269  89.78360
           X            1.00000   0.00000  -0.00000
           Y           -0.00000   1.00000   0.00000
           Z            0.00000  -0.00000   1.00000
 This molecule is an asymmetric top.
 Rotational symmetry number  1.
 Rotational temperatures (Kelvin)      3.88310     0.96471     0.96470
 Rotational constants (GHZ):          80.91058    20.10122    20.10101
 Zero-point vibrational energy     197170.8 (Joules/Mol)
                                   47.12494 (Kcal/Mol)
 Warning -- explicit consideration of   1 degrees of freedom as
           vibrations may cause significant error
 Vibrational temperatures:    445.75  1184.63  1186.64  1470.50  1757.05
          (Kelvin)           1757.88  2021.93  2049.97  2167.11  2167.49
                             2169.97  2170.59  4413.80  4416.39  4495.23
                             4495.44  4528.95  4529.06

 Zero-point correction=                           0.075098 (Hartree/Particle)
 Thermal correction to Energy=                    0.078580
 Thermal correction to Enthalpy=                  0.079524
 Thermal correction to Gibbs Free Energy=         0.051995
 Sum of electronic and zero-point Energies=            -79.729339
 Sum of electronic and thermal Energies=               -79.725858
 Sum of electronic and thermal Enthalpies=             -79.724914
 Sum of electronic and thermal Free Energies=          -79.752443

                     E (Thermal)             CV                S
                      KCal/Mol        Cal/Mol-Kelvin    Cal/Mol-Kelvin
 Total                   49.310             10.071             57.940
 Electronic               0.000              0.000              0.000
 Translational            0.889              2.981             36.134
 Rotational               0.889              2.981             19.825
 Vibrational             47.532              4.109              1.981
 Vibration     1          0.699              1.655              1.363

 Optimization completed.
    -- Stationary point found.
 Normal termination of Gaussian 16 at Mon Jun 20 16:11:58 2022.
