 Gaussian 16, Revision C.01,
 Gaussian 16:  AS64L-G16RevC.01  3-Jul-2019

 -------------------------
 # opt freq M062X/def2tzvp
 -------------------------

 converted from /home/svss/projects/Project-Philicity/GS/hydrocarbon/se
 t-1/GS/mol_34_hc/mol_34_hc_cregen_best.xyz
 ----------------------------------------------------------------------
 Symbolic Z-matrix:
 Charge =  0 Multiplicity = 1

 SCF Done:  E(RM062X) =  -460.798102563     A.U. after   10 cycles
 SCF Done:  E(RM062X) =  -460.798104210     A.U. after    7 cycles
 Optimization completed.
    -- Stationary point found.
 Normal termination of Gaussian 16 at Mon Jun 20 20:15:30 2022.

 --------------------------------------------------------------------
 #N Geom=AllCheck Guess=TCheck SCRF=Check GenChk RM062X/def2TZVP Freq
 --------------------------------------------------------------------

 ----------------------------------------------------------------------
 converted from /home/svss/projects/Project-Philicity/GS/hydrocarbon/se
 t-1/GS/mol_34_hc/mol_34_hc_cregen_best.xyz
 ----------------------------------------------------------------------
 Charge =  0 Multiplicity = 1

                         Standard orientation:
 ---------------------------------------------------------------------
 Center     Atomic      Atomic             Coordinates (Angstroms)
 Number     Number       Type             X           Y           Z
 ---------------------------------------------------------------------
      1         17           0        0.000000    0.000000    0.070980
      2          1           0        0.000000    0.000000   -1.206659
 ---------------------------------------------------------------------

 SCF Done:  E(RM062X) =  -460.798104210     A.U. after    1 cycles

 The electronic state is 1-SG.
 Alpha  occ. eigenvalues -- -102.64839  -9.81187  -7.53383  -7.52864  -7.52864
 Alpha  occ. eigenvalues --   -0.94026  -0.53612  -0.39767  -0.39767
 Alpha virt. eigenvalues --    0.04425   0.22289   0.38644   0.38644   0.39603
 Alpha virt. eigenvalues --    0.44208   0.44208   0.48450   0.48451   0.68094
 Alpha virt. eigenvalues --    0.78940   1.51510   1.51510   1.71888   1.78474

 Mulliken charges:
               1
     1  Cl  -0.245701
     2  H    0.245701
 Sum of Mulliken charges =   0.00000

 Dipole moment (field-independent basis, Debye):
    X=              0.0000    Y=              0.0000    Z=             -1.2572  Tot=              1.2572
 Quadrupole moment (field-independent basis, Debye-Ang):
   XX=            -13.9451   YY=            -13.9451   ZZ=            -10.3047
   XY=              0.0000   XZ=              0.0000   YZ=              0.0000

  Exact polarizability:       9.988       0.000       9.988      -0.000       0.000      14.769
 Approx polarizability:      12.460      -0.000      12.460      -0.000      -0.000      19.166

                      1
                     SG
 Frequencies --   2989.3372
 Red. masses --      1.0360
 Frc consts  --      5.4546
 IR Inten    --     48.6980

 - Thermochemistry -
 -------------------
 Temperature   298.150 Kelvin.  Pressure   1.00000 Atm.
 Atom     1 has atomic number 17 and mass  34.96885

 Molecular mass:    35.97668 amu.
 Principal axes and moments of inertia in atomic units:
                           1         2         3
     Eigenvalues --     0.00000   5.71031   5.71031
           X            0.00000  -0.00000   1.00000
           Y            0.00000   1.00000   0.00000
           Z            1.00000   0.00000   0.00000
 This molecule is a prolate symmetric top.
 Rotational symmetry number  1.
 Rotational temperature (Kelvin)     15.16799
 Rotational constant (GHZ):         316.049627
 Zero-point vibrational energy      17880.2 (Joules/Mol)
                                    4.27347 (Kcal/Mol)
 Vibrational temperatures:   4300.99
          (Kelvin)

 Zero-point correction=                           0.006810 (Hartree/Particle)
 Thermal correction to Energy=                    0.009171
 Thermal correction to Enthalpy=                  0.010115
 Thermal correction to Gibbs Free Energy=        -0.011065
 Sum of electronic and zero-point Energies=           -460.791294
 Sum of electronic and thermal Energies=              -460.788934
 Sum of electronic and thermal Enthalpies=            -460.787989
 Sum of electronic and thermal Free Energies=         -460.809169

                     E (Thermal)             CV                S
                      KCal/Mol        Cal/Mol-Kelvin    Cal/Mol-Kelvin
 Total                    5.755              4.968             44.577
 Electronic               0.000              0.000              0.000
 Translational            0.889              2.981             36.671
 Rotational               0.592              1.987              7.906
 Vibrational              4.273              0.000              0.000

 Optimization completed.
    -- Stationary point found.
 Normal termination of Gaussian 16 at Mon Jun 20 20:15:33 2022.
