 Gaussian 16, Revision C.01,
 Gaussian 16:  AS64L-G16RevC.01  3-Jul-2019

 -------------------------
 # opt freq M062X/def2tzvp
 -------------------------

 converted from /home/svss/projects/Project-Philicity/GS/hydrocarbon/se
 t-1/GS/mol_7_hc/mol_7_hc_cregen_best.xyz
 ----------------------------------------------------------------------
 Symbolic Z-matrix:
 Charge =  0 Multiplicity = 1

 SCF Done:  E(RM062X) =  -310.844938894     A.U. after   12 cycles
 SCF Done:  E(RM062X) =  -310.845186043     A.U. after   10 cycles
 SCF Done:  E(RM062X) =  -310.845195798     A.U. after    8 cycles
 Optimization completed.
    -- Stationary point found.
 Normal termination of Gaussian 16 at Mon Jun 20 16:39:08 2022.

 --------------------------------------------------------------------
 #N Geom=AllCheck Guess=TCheck SCRF=Check GenChk RM062X/def2TZVP Freq
 --------------------------------------------------------------------

 ----------------------------------------------------------------------
 converted from /home/svss/projects/Project-Philicity/GS/hydrocarbon/se
 t-1/GS/mol_7_hc/mol_7_hc_cregen_best.xyz
 ----------------------------------------------------------------------
 Charge =  0 Multiplicity = 1

                         Standard orientation:
 ---------------------------------------------------------------------
 Center     Atomic      Atomic             Coordinates (Angstroms)
 Number     Number       Type             X           Y           Z
 ---------------------------------------------------------------------
      1          6           0       -2.915977   -0.003140   -0.003962
      2          6           0       -1.411685    0.003164    0.012495
      3          6           0       -0.692962   -1.190069    0.006758
      4          6           0        0.692495   -1.190367   -0.007361
      5          6           0        1.411697    0.002567   -0.012886
      6          6           0        2.915967   -0.003361    0.005023
      7          6           0        0.694459    1.193341   -0.007226
      8          6           0       -0.693977    1.193634    0.006640
      9          1           0       -3.312766   -0.791817    0.635743
     10          1           0       -3.292224   -0.179446   -1.014112
     11          1           0       -3.317399    0.950043    0.338294
     12          1           0       -1.228657   -2.132803    0.012184
     13          1           0        1.227759   -2.133316   -0.013178
     14          1           0        3.317796    0.938752   -0.366343
     15          1           0        3.313379   -0.811664   -0.609134
     16          1           0        3.291133   -0.147488    1.020705
     17          1           0        1.229219    2.136317   -0.012936
     18          1           0       -1.228338    2.136818    0.011894
 ---------------------------------------------------------------------

 SCF Done:  E(RM062X) =  -310.845195798     A.U. after    1 cycles

 The electronic state is 1-A.
 Alpha  occ. eigenvalues --  -10.54199 -10.54196 -10.53319 -10.53297 -10.53237
 Alpha  occ. eigenvalues --  -10.53217 -10.52879 -10.52879  -0.96278  -0.88394
 Alpha  occ. eigenvalues --   -0.83708  -0.81125  -0.74146  -0.68789  -0.65069
 Alpha  occ. eigenvalues --   -0.56271  -0.53845  -0.51797  -0.49192  -0.48061
 Alpha  occ. eigenvalues --   -0.47966  -0.46366  -0.45605  -0.43297  -0.41030
 Alpha  occ. eigenvalues --   -0.39298  -0.38872  -0.30341  -0.28425
 Alpha virt. eigenvalues --    0.02434   0.03111   0.07912   0.08322   0.10546
 Alpha virt. eigenvalues --    0.10923   0.13527   0.14208   0.14312   0.16492
 Alpha virt. eigenvalues --    0.16538   0.17072   0.17630   0.18657   0.20232

 Mulliken charges:
               1
     1  C   -0.474969
     2  C    0.101356
     3  C   -0.174040
     4  C   -0.173697
     5  C    0.101487
     6  C   -0.474528
     7  C   -0.176686
     8  C   -0.176536
     9  H    0.147586
    10  H    0.156510
    11  H    0.140224
    12  H    0.140764
    13  H    0.140590
    14  H    0.140825
    15  H    0.146850
    16  H    0.156565
    17  H    0.138923
    18  H    0.138775
 Sum of Mulliken charges =  -0.00000

 Dipole moment (field-independent basis, Debye):
    X=             -0.0000    Y=             -0.0394    Z=              0.0017  Tot=              0.0394
 Quadrupole moment (field-independent basis, Debye-Ang):
   XX=            -44.2912   YY=            -45.5149   ZZ=            -52.4897
   XY=              0.0071   XZ=              0.1043   YZ=             -0.0003

  Exact polarizability:     121.022       0.046      93.664       0.660      -0.002      57.728
 Approx polarizability:     136.269       0.072     127.714       0.606      -0.001      77.798

                      1                      2                      3
                      A                      A                      A
 Frequencies --     39.3659                53.6567               138.3718
 Red. masses --      1.0158                 1.0667                 2.9265
 Frc consts  --      0.0009                 0.0018                 0.0330
 IR Inten    --      0.3716                 0.0948                 2.0558

                      4                      5                      6
                      A                      A                      A
 Frequencies --    289.3507               313.0501               389.6390
 Red. masses --      2.5359                 3.2264                 2.4878
 Frc consts  --      0.1251                 0.1863                 0.2225
 IR Inten    --      0.5648                 0.0000                 0.0408

                      7                      8                      9
                      A                      A                      A
 Frequencies --    417.6597               465.9287               497.2567
 Red. masses --      2.9259                 4.7837                 2.3393
 Frc consts  --      0.3007                 0.6119                 0.3408
 IR Inten    --      0.0112                 0.0017                20.5970

                     10                     11                     12
                      A                      A                      A
 Frequencies --    658.5258               729.8422               738.4941
 Red. masses --      6.7265                 2.9843                 3.7281
 Frc consts  --      1.7186                 0.9366                 1.1979
 IR Inten    --      0.0004                 0.0001                 0.3233

                     13                     14                     15
                      A                      A                      A
 Frequencies --    822.4223               849.9896               865.8108
 Red. masses --      1.3012                 5.1023                 1.2518
 Frc consts  --      0.5185                 2.1719                 0.5529
 IR Inten    --     39.7928                 0.0022                 0.0051

                     16                     17                     18
                      A                      A                      A
 Frequencies --    967.3293               982.9810               993.7874
 Red. masses --      1.2685                 1.3645                 1.4517
 Frc consts  --      0.6994                 0.7768                 0.8447
 IR Inten    --      0.0005                 0.0012                 0.0353

                     19                     20                     21
                      A                      A                      A
 Frequencies --   1027.9615              1044.9416              1066.5209
 Red. masses --      1.3366                 2.7174                 1.5608
 Frc consts  --      0.8321                 1.7482                 1.0460
 IR Inten    --      0.8702                 1.7361                 0.0132

                     22                     23                     24
                      A                      A                      A
 Frequencies --   1069.6915              1141.0926              1209.5271
 Red. masses --      1.5647                 1.2847                 1.1070
 Frc consts  --      1.0548                 0.9856                 0.9541
 IR Inten    --     13.9378                 7.2056                 0.0003

                     25                     26                     27
                      A                      A                      A
 Frequencies --   1248.6314              1249.6963              1311.8214
 Red. masses --      1.9951                 5.3549                 6.5831
 Frc consts  --      1.8327                 4.9273                 6.6746
 IR Inten    --      2.2621                 0.0143                 0.0804

                     28                     29                     30
                      A                      A                      A
 Frequencies --   1341.1999              1413.8815              1414.2387
 Red. masses --      1.2856                 1.2743                 1.2820
 Frc consts  --      1.3625                 1.5009                 1.5107
 IR Inten    --      0.1046                 1.1749                 0.0026

                     31                     32                     33
                      A                      A                      A
 Frequencies --   1449.4401              1489.6162              1490.8323
 Red. masses --      2.1851                 1.0608                 1.0479
 Frc consts  --      2.7048                 1.3868                 1.3722
 IR Inten    --      0.0322                 2.3692                 0.3646

                     34                     35                     36
                      A                      A                      A
 Frequencies --   1492.1773              1505.4506              1567.5705
 Red. masses --      1.0509                 1.1972                 2.8587
 Frc consts  --      1.3786                 1.5987                 4.1387
 IR Inten    --     11.0736                20.0350                30.5275

                     37                     38                     39
                      A                      A                      A
 Frequencies --   1649.1220              1693.0419              3062.8805
 Red. masses --      5.9929                 6.4053                 1.0376
 Frc consts  --      9.6026                10.8175                 5.7352
 IR Inten    --      0.2075                 0.0011                44.2373

                     40                     41                     42
                      A                      A                      A
 Frequencies --   3062.9791              3124.0538              3124.1905
 Red. masses --      1.0376                 1.0988                 1.0990
 Frc consts  --      5.7354                 6.3182                 6.3198
 IR Inten    --      3.6115                 0.0132                22.6973

                     43                     44                     45
                      A                      A                      A
 Frequencies --   3147.9232              3148.1656              3185.2358
 Red. masses --      1.1025                 1.1025                 1.0870
 Frc consts  --      6.4371                 6.4381                 6.4978
 IR Inten    --     12.4645                10.3852                 9.2316

                     46                     47                     48
                      A                      A                      A
 Frequencies --   3188.0561              3201.5992              3205.5544
 Red. masses --      1.0872                 1.0946                 1.0951
 Frc consts  --      6.5103                 6.6107                 6.6299
 IR Inten    --      6.5586                24.4661                 3.1594

 - Thermochemistry -
 -------------------
 Temperature   298.150 Kelvin.  Pressure   1.00000 Atm.
 Atom     1 has atomic number  6 and mass  12.00000

 Molecular mass:   106.07825 amu.
 Principal axes and moments of inertia in atomic units:
                           1         2         3
     Eigenvalues --   331.506111251.091271560.27395
           X            1.00000   0.00002   0.00050
           Y           -0.00002   1.00000  -0.00000
           Z           -0.00050   0.00000   1.00000
 This molecule is an asymmetric top.
 Rotational symmetry number  1.
 Rotational temperatures (Kelvin)      0.26127     0.06923     0.05551
 Rotational constants (GHZ):           5.44407     1.44253     1.15668
 Zero-point vibrational energy     409963.6 (Joules/Mol)
                                   97.98364 (Kcal/Mol)
 Warning -- explicit consideration of   9 degrees of freedom as
           vibrations may cause significant error
 Vibrational temperatures:     56.64    77.20   199.09   416.31   450.41
          (Kelvin)            560.60   600.92   670.37   715.44   947.47
                             1050.08  1062.53  1183.28  1222.95  1245.71
                             1391.77  1414.29  1429.84  1479.01  1503.44
                             1534.49  1539.05  1641.78  1740.24  1796.50
                             1798.03  1887.42  1929.69  2034.26  2034.77
                             2085.42  2143.23  2144.98  2146.91  2166.01
                             2255.38  2372.72  2435.91  4406.80  4406.94
                             4494.82  4495.01  4529.16  4529.51  4582.84
                             4586.90  4606.39  4612.08

 Zero-point correction=                           0.156147 (Hartree/Particle)
 Thermal correction to Energy=                    0.164156
 Thermal correction to Enthalpy=                  0.165100
 Thermal correction to Gibbs Free Energy=         0.122748
 Sum of electronic and zero-point Energies=           -310.689049
 Sum of electronic and thermal Energies=              -310.681040
 Sum of electronic and thermal Enthalpies=            -310.680096
 Sum of electronic and thermal Free Energies=         -310.722447

                     E (Thermal)             CV                S
                      KCal/Mol        Cal/Mol-Kelvin    Cal/Mol-Kelvin
 Total                  103.009             29.153             89.137
 Electronic               0.000              0.000              0.000
 Translational            0.889              2.981             39.894
 Rotational               0.889              2.981             27.961
 Vibrational            101.232             23.191             21.282
 Vibration     1          0.594              1.981              5.291
 Vibration     2          0.596              1.976              4.678
 Vibration     3          0.614              1.915              2.826
 Vibration     4          0.686              1.694              1.478
 Vibration     5          0.701              1.649              1.346
 Vibration     6          0.758              1.492              1.002
 Vibration     7          0.781              1.432              0.900
 Vibration     8          0.823              1.326              0.749
 Vibration     9          0.853              1.256              0.665

                           ! Non-Optimized Parameters !
 Normal termination of Gaussian 16 at Mon Jun 20 16:48:04 2022.
