 Gaussian 16, Revision C.01,
 Gaussian 16:  AS64L-G16RevC.01  3-Jul-2019

 -------------------------
 # opt freq M062X/def2tzvp
 -------------------------

 converted from /home/svss/projects/Project-Philicity/GS/hydrocarbon/se
 t-1/GS/mol_8_hc/mol_8_hc_cregen_best.xyz
 ----------------------------------------------------------------------
 Symbolic Z-matrix:
 Charge =  0 Multiplicity = 1

 SCF Done:  E(RM062X) =  -117.883712681     A.U. after   12 cycles
 SCF Done:  E(RM062X) =  -117.883917201     A.U. after    9 cycles
 SCF Done:  E(RM062X) =  -117.883926114     A.U. after    7 cycles
 SCF Done:  E(RM062X) =  -117.883926835     A.U. after    7 cycles
 Optimization completed.
    -- Stationary point found.
 Normal termination of Gaussian 16 at Mon Jun 20 16:49:08 2022.

 --------------------------------------------------------------------
 #N Geom=AllCheck Guess=TCheck SCRF=Check GenChk RM062X/def2TZVP Freq
 --------------------------------------------------------------------

 ----------------------------------------------------------------------
 converted from /home/svss/projects/Project-Philicity/GS/hydrocarbon/se
 t-1/GS/mol_8_hc/mol_8_hc_cregen_best.xyz
 ----------------------------------------------------------------------
 Charge =  0 Multiplicity = 1

                         Standard orientation:
 ---------------------------------------------------------------------
 Center     Atomic      Atomic             Coordinates (Angstroms)
 Number     Number       Type             X           Y           Z
 ---------------------------------------------------------------------
      1          6           0        1.272266   -0.221492   -0.000004
      2          6           0        0.134550    0.455990   -0.000002
      3          6           0       -1.227327   -0.162464    0.000003
      4          1           0        1.281345   -1.305817   -0.000008
      5          1           0        2.231250    0.279697    0.000003
      6          1           0        0.169950    1.541933    0.000003
      7          1           0       -1.797224    0.151246   -0.877275
      8          1           0       -1.797172    0.151155    0.877348
      9          1           0       -1.165080   -1.250418   -0.000055
 ---------------------------------------------------------------------

 SCF Done:  E(RM062X) =  -117.883926835     A.U. after    1 cycles

 The electronic state is 1-A.
 Alpha  occ. eigenvalues --  -10.53886 -10.52934 -10.52406  -0.88721  -0.77631
 Alpha  occ. eigenvalues --   -0.63275  -0.53854  -0.48664  -0.47993  -0.43328
 Alpha  occ. eigenvalues --   -0.40481  -0.31649
 Alpha virt. eigenvalues --    0.05112   0.08478   0.11325   0.12415   0.14929
 Alpha virt. eigenvalues --    0.15034   0.16960   0.20106   0.23996   0.24287
 Alpha virt. eigenvalues --    0.24960   0.29239   0.29468   0.32121   0.35575

 Mulliken charges:
               1
     1  C   -0.312538
     2  C   -0.071118
     3  C   -0.408229
     4  H    0.122241
     5  H    0.126828
     6  H    0.127043
     7  H    0.142919
     8  H    0.142920
     9  H    0.129932
 Sum of Mulliken charges =  -0.00000

 Dipole moment (field-independent basis, Debye):
    X=             -0.3768    Y=              0.0717    Z=              0.0000  Tot=              0.3836
 Quadrupole moment (field-independent basis, Debye-Ang):
   XX=            -19.2987   YY=            -19.0000   ZZ=            -21.9906
   XY=             -0.1690   XZ=              0.0000   YZ=              0.0000

  Exact polarizability:      47.952      -4.037      35.480      -0.000       0.000      27.735
 Approx polarizability:      52.354      -7.010      42.163      -0.000       0.000      33.349

                      1                      2                      3
                      A                      A                      A
 Frequencies --    207.7308               430.7361               595.8922
 Red. masses --      1.1609                 1.9530                 1.1830
 Frc consts  --      0.0295                 0.2135                 0.2475
 IR Inten    --      0.5083                 0.9677                13.2021

                      4                      5                      6
                      A                      A                      A
 Frequencies --    939.0328               947.6151               968.2419
 Red. masses --      2.3770                 1.1447                 1.3115
 Frc consts  --      1.2349                 0.6056                 0.7244
 IR Inten    --      3.3453                 2.7655                50.3183

                      7                      8                      9
                      A                      A                      A
 Frequencies --   1034.4976              1079.1884              1196.1761
 Red. masses --      1.0628                 1.5595                 1.7821
 Frc consts  --      0.6702                 1.0701                 1.5024
 IR Inten    --     10.0567                 3.3849                 0.2996

                     10                     11                     12
                      A                      A                      A
 Frequencies --   1330.7826              1405.9310              1454.3284
 Red. masses --      1.2457                 1.2266                 1.2014
 Frc consts  --      1.2998                 1.4285                 1.4971
 IR Inten    --      0.0772                 2.3897                 0.9099

                     13                     14                     15
                      A                      A                      A
 Frequencies --   1482.8207              1495.5614              1741.1166
 Red. masses --      1.0438                 1.0581                 4.7891
 Frc consts  --      1.3522                 1.3943                 8.5538
 IR Inten    --      7.9460                16.1232                14.1821

                     16                     17                     18
                      A                      A                      A
 Frequencies --   3058.3278              3114.7707              3141.3758
 Red. masses --      1.0360                 1.0999                 1.0995
 Frc consts  --      5.7092                 6.2869                 6.3929
 IR Inten    --     17.7849                12.1805                 5.8634

                     19                     20                     21
                      A                      A                      A
 Frequencies --   3162.1218              3170.2175              3252.1039
 Red. masses --      1.0628                 1.0908                 1.1156
 Frc consts  --      6.2610                 6.4589                 6.9519
 IR Inten    --     16.4795                 8.1713                11.2994

 - Thermochemistry -
 -------------------
 Temperature   298.150 Kelvin.  Pressure   1.00000 Atm.
 Atom     1 has atomic number  6 and mass  12.00000

 Molecular mass:    42.04695 amu.
 Principal axes and moments of inertia in atomic units:
                           1         2         3
     Eigenvalues --    38.43363 192.19996 219.55333
           X            0.99999   0.00316   0.00000
           Y           -0.00316   0.99999  -0.00000
           Z           -0.00000   0.00000   1.00000
 This molecule is an asymmetric top.
 Rotational symmetry number  1.
 Rotational temperatures (Kelvin)      2.25360     0.45064     0.39450
 Rotational constants (GHZ):          46.95734     9.38991     8.22006
 Zero-point vibrational energy     210594.0 (Joules/Mol)
                                   50.33318 (Kcal/Mol)
 Warning -- explicit consideration of   3 degrees of freedom as
           vibrations may cause significant error
 Vibrational temperatures:    298.88   619.73   857.36  1351.06  1363.41
          (Kelvin)           1393.08  1488.41  1552.71  1721.03  1914.70
                             2022.82  2092.45  2133.45  2151.78  2505.08
                             4400.25  4481.46  4519.74  4549.59  4561.24
                             4679.05

 Zero-point correction=                           0.080211 (Hartree/Particle)
 Thermal correction to Energy=                    0.084280
 Thermal correction to Enthalpy=                  0.085224
 Thermal correction to Gibbs Free Energy=         0.055224
 Sum of electronic and zero-point Energies=           -117.803716
 Sum of electronic and thermal Energies=              -117.799647
 Sum of electronic and thermal Enthalpies=            -117.798703
 Sum of electronic and thermal Free Energies=         -117.828702

                     E (Thermal)             CV                S
                      KCal/Mol        Cal/Mol-Kelvin    Cal/Mol-Kelvin
 Total                   52.886             12.894             63.140
 Electronic               0.000              0.000              0.000
 Translational            0.889              2.981             37.135
 Rotational               0.889              2.981             22.010
 Vibrational             51.109              6.933              3.994
 Vibration     1          0.641              1.829              2.064
 Vibration     2          0.792              1.403              0.856
 Vibration     3          0.954              1.041              0.457

 Optimization completed.
    -- Stationary point found.
 Normal termination of Gaussian 16 at Mon Jun 20 16:49:58 2022.
