 Gaussian 16, Revision C.01,
 Gaussian 16:  AS64L-G16RevC.01  3-Jul-2019

 -------------------------
 # opt freq M062X/def2tzvp
 -------------------------

 converted from /home/svss/projects/Project-Philicity/GS/hydrocarbon/se
 t-1/GS/mol_5_hc/mol_5_hc_cregen_best.xyz
 ----------------------------------------------------------------------
 Symbolic Z-matrix:
 Charge =  0 Multiplicity = 1

 SCF Done:  E(RM062X) =  -119.111372136     A.U. after   11 cycles
 SCF Done:  E(RM062X) =  -119.111545691     A.U. after    8 cycles
 SCF Done:  E(RM062X) =  -119.111557796     A.U. after    7 cycles
 Optimization completed.
    -- Stationary point found.
 Normal termination of Gaussian 16 at Mon Jun 20 16:13:18 2022.

 --------------------------------------------------------------------
 #N Geom=AllCheck Guess=TCheck SCRF=Check GenChk RM062X/def2TZVP Freq
 --------------------------------------------------------------------

 ----------------------------------------------------------------------
 converted from /home/svss/projects/Project-Philicity/GS/hydrocarbon/se
 t-1/GS/mol_5_hc/mol_5_hc_cregen_best.xyz
 ----------------------------------------------------------------------
 Charge =  0 Multiplicity = 1

                         Standard orientation:
 ---------------------------------------------------------------------
 Center     Atomic      Atomic             Coordinates (Angstroms)
 Number     Number       Type             X           Y           Z
 ---------------------------------------------------------------------
      1          6           0       -1.264408   -0.260433    0.000009
      2          6           0        0.000000    0.590536   -0.000003
      3          6           0        1.264408   -0.260433   -0.000006
      4          1           0       -1.297619   -0.904709   -0.881068
      5          1           0       -2.164630    0.354961   -0.000014
      6          1           0       -1.297633   -0.904665    0.881116
      7          1           0        0.000003    1.245411    0.874503
      8          1           0       -0.000004    1.245402   -0.874516
      9          1           0        2.164629    0.354961    0.000001
     10          1           0        1.297630   -0.904682   -0.881102
     11          1           0        1.297624   -0.904691    0.881083
 ---------------------------------------------------------------------

 SCF Done:  E(RM062X) =  -119.111557796     A.U. after    1 cycles

 The electronic state is 1-A.
 Alpha  occ. eigenvalues --  -10.52644 -10.51827 -10.51825  -0.87909  -0.76989
 Alpha  occ. eigenvalues --   -0.66601  -0.52758  -0.50466  -0.46148  -0.44300
 Alpha  occ. eigenvalues --   -0.39525  -0.39497  -0.38612
 Alpha virt. eigenvalues --    0.07072   0.11384   0.11878   0.12766   0.14064
 Alpha virt. eigenvalues --    0.15623   0.17483   0.18338   0.18898   0.24100
 Alpha virt. eigenvalues --    0.24790   0.25267   0.26150   0.30314   0.30608

 Mulliken charges:
               1
     1  C   -0.412655
     2  C   -0.220748
     3  C   -0.412655
     4  H    0.132276
     5  H    0.136385
     6  H    0.132277
     7  H    0.122090
     8  H    0.122090
     9  H    0.136385
    10  H    0.132277
    11  H    0.132276
 Sum of Mulliken charges =  -0.00000

 Dipole moment (field-independent basis, Debye):
    X=              0.0000    Y=              0.0961    Z=              0.0000  Tot=              0.0961
 Quadrupole moment (field-independent basis, Debye-Ang):
   XX=            -22.3809   YY=            -22.0376   ZZ=            -21.5069
   XY=             -0.0000   XZ=              0.0000   YZ=              0.0000

  Exact polarizability:      42.183      -0.000      37.317      -0.000      -0.000      35.723
 Approx polarizability:      42.900      -0.000      42.863      -0.000       0.000      42.831

                      1                      2                      3
                      A                      A                      A
 Frequencies --    218.8639               280.0058               372.6490
 Red. masses --      1.0286                 1.1333                 2.0464
 Frc consts  --      0.0290                 0.0524                 0.1674
 IR Inten    --      0.0000                 0.0007                 0.0370

                      4                      5                      6
                      A                      A                      A
 Frequencies --    752.3287               892.3328               913.1759
 Red. masses --      1.0794                 2.4708                 1.1010
 Frc consts  --      0.3599                 1.1591                 0.5410
 IR Inten    --      2.8643                 0.9014                 0.0000

                      7                      8                      9
                      A                      A                      A
 Frequencies --    934.8735              1078.7518              1181.9978
 Red. masses --      1.1827                 2.3278                 1.8152
 Frc consts  --      0.6090                 1.5960                 1.4942
 IR Inten    --      1.8990                 0.6151                 1.0777

                     10                     11                     12
                      A                      A                      A
 Frequencies --   1215.5092              1317.4742              1366.7630
 Red. masses --      1.6623                 1.1255                 1.3990
 Frc consts  --      1.4470                 1.1510                 1.5397
 IR Inten    --      0.1427                 0.0000                 1.1636

                     13                     14                     15
                      A                      A                      A
 Frequencies --   1405.8999              1420.7001              1490.9490
 Red. masses --      1.3387                 1.2440                 1.0367
 Frc consts  --      1.5589                 1.4794                 1.3578
 IR Inten    --      5.7585                 3.9346                 0.0000

                     16                     17                     18
                      A                      A                      A
 Frequencies --   1492.8575              1497.9281              1509.1865
 Red. masses --      1.0425                 1.0528                 1.0400
 Frc consts  --      1.3688                 1.3918                 1.3956
 IR Inten    --      0.0051                 2.5567                16.0063

                     19                     20                     21
                      A                      A                      A
 Frequencies --   1514.3310              3055.3077              3056.3637
 Red. masses --      1.0844                 1.0356                 1.0400
 Frc consts  --      1.4651                 5.6959                 5.7239
 IR Inten    --      6.7318                28.1270                 4.9835

                     22                     23                     24
                      A                      A                      A
 Frequencies --   3063.0480              3089.4518              3120.0851
 Red. masses --      1.0565                 1.1023                 1.1025
 Frc consts  --      5.8400                 6.1988                 6.3236
 IR Inten    --     37.0867                 1.1596                 0.0000

                     25                     26                     27
                      A                      A                      A
 Frequencies --   3131.0918              3133.6443              3135.6520
 Red. masses --      1.1035                 1.1019                 1.1009
 Frc consts  --      6.3740                 6.3752                 6.3778
 IR Inten    --     71.9973                24.2100                35.3318

 - Thermochemistry -
 -------------------
 Temperature   298.150 Kelvin.  Pressure   1.00000 Atm.
 Atom     1 has atomic number  6 and mass  12.00000

 Molecular mass:    44.06260 amu.
 Principal axes and moments of inertia in atomic units:
                           1         2         3
     Eigenvalues --    61.27790 211.66829 239.58461
           X            1.00000  -0.00000   0.00001
           Y            0.00000   1.00000   0.00001
           Z           -0.00001  -0.00001   1.00000
 This molecule is an asymmetric top.
 Rotational symmetry number  1.
 Rotational temperatures (Kelvin)      1.41346     0.40920     0.36152
 Rotational constants (GHZ):          29.45175     8.52627     7.53279
 Zero-point vibrational energy     272995.1 (Joules/Mol)
                                   65.24740 (Kcal/Mol)
 Warning -- explicit consideration of   3 degrees of freedom as
           vibrations may cause significant error
 Vibrational temperatures:    314.90   402.87   536.16  1082.43  1283.87
          (Kelvin)           1313.86  1345.07  1552.08  1700.63  1748.85
                             1895.55  1966.47  2022.78  2044.07  2145.14
                             2147.89  2155.18  2171.38  2178.78  4395.91
                             4397.43  4407.04  4445.03  4489.11  4504.94
                             4508.62  4511.50

 Zero-point correction=                           0.103978 (Hartree/Particle)
 Thermal correction to Energy=                    0.108491
 Thermal correction to Enthalpy=                  0.109436
 Thermal correction to Gibbs Free Energy=         0.078343
 Sum of electronic and zero-point Energies=           -119.007579
 Sum of electronic and thermal Energies=              -119.003066
 Sum of electronic and thermal Enthalpies=            -119.002122
 Sum of electronic and thermal Free Energies=         -119.033215

                     E (Thermal)             CV                S
                      KCal/Mol        Cal/Mol-Kelvin    Cal/Mol-Kelvin
 Total                   68.079             14.738             65.440
 Electronic               0.000              0.000              0.000
 Translational            0.889              2.981             37.275
 Rotational               0.889              2.981             22.657
 Vibrational             66.302              8.776              5.509
 Vibration     1          0.647              1.812              1.968
 Vibration     2          0.680              1.711              1.534
 Vibration     3          0.744              1.528              1.069

 Optimization completed.
    -- Stationary point found.
 Normal termination of Gaussian 16 at Mon Jun 20 16:14:31 2022.
