 Gaussian 16, Revision C.01,
 Gaussian 16:  AS64L-G16RevC.01  3-Jul-2019

 -------------------------
 # opt freq M062X/def2tzvp
 -------------------------

 converted from /home/svss/projects/Project-Philicity/GS/hydrocarbon/se
 t-1/GS/mol_2_hc/mol_2_hc_cregen_best.xyz
 ----------------------------------------------------------------------
 Symbolic Z-matrix:
 Charge =  0 Multiplicity = 1

 SCF Done:  E(RM062X) =  -158.420591622     A.U. after   12 cycles
 SCF Done:  E(RM062X) =  -158.420788591     A.U. after    9 cycles
 SCF Done:  E(RM062X) =  -158.420801479     A.U. after    7 cycles
 Optimization completed.
    -- Stationary point found.
 Normal termination of Gaussian 16 at Mon Jun 20 16:07:16 2022.

 --------------------------------------------------------------------
 #N Geom=AllCheck Guess=TCheck SCRF=Check GenChk RM062X/def2TZVP Freq
 --------------------------------------------------------------------

 ----------------------------------------------------------------------
 converted from /home/svss/projects/Project-Philicity/GS/hydrocarbon/se
 t-1/GS/mol_2_hc/mol_2_hc_cregen_best.xyz
 ----------------------------------------------------------------------
 Charge =  0 Multiplicity = 1

                         Standard orientation:
 ---------------------------------------------------------------------
 Center     Atomic      Atomic             Coordinates (Angstroms)
 Number     Number       Type             X           Y           Z
 ---------------------------------------------------------------------
      1          6           0       -1.444894    0.107685    0.096285
      2          6           0        0.000004   -0.000014   -0.380503
      3          6           0        0.815712    1.197448    0.096273
      4          6           0        0.629189   -1.305126    0.096256
      5          1           0       -1.482910    0.110829    1.189226
      6          1           0       -1.912110    1.028560   -0.257255
      7          1           0       -2.043210   -0.734120   -0.256761
      8          1           0       -0.000032    0.000007   -1.475203
      9          1           0        0.385683    2.136535   -0.256510
     10          1           0        0.837682    1.228598    1.189207
     11          1           0        1.846705    1.141715   -0.257584
     12          1           0        0.645619   -1.339501    1.189183
     13          1           0        0.065215   -2.170165   -0.257159
     14          1           0        1.657294   -1.402417   -0.257012
 ---------------------------------------------------------------------

 SCF Done:  E(RM062X) =  -158.420801479     A.U. after    1 cycles

 The electronic state is 1-A.
 Alpha  occ. eigenvalues --  -10.53342 -10.51748 -10.51748 -10.51746  -0.90313
 Alpha  occ. eigenvalues --   -0.77154  -0.77153  -0.63850  -0.53428  -0.49797
 Alpha  occ. eigenvalues --   -0.49796  -0.44557  -0.44557  -0.42383  -0.38392
 Alpha  occ. eigenvalues --   -0.38390  -0.37958
 Alpha virt. eigenvalues --    0.06535   0.11183   0.11890   0.11891   0.13330
 Alpha virt. eigenvalues --    0.14023   0.14023   0.17527   0.18991   0.18992
 Alpha virt. eigenvalues --    0.20487   0.20488   0.20726   0.24640   0.24641

 Mulliken charges:
               1
     1  C   -0.418457
     2  C   -0.097617
     3  C   -0.418433
     4  C   -0.418422
     5  H    0.135919
     6  H    0.138457
     7  H    0.138446
     8  H    0.114485
     9  H    0.138439
    10  H    0.135916
    11  H    0.138457
    12  H    0.135915
    13  H    0.138453
    14  H    0.138442
 Sum of Mulliken charges =  -0.00000

 Dipole moment (field-independent basis, Debye):
    X=              0.0000    Y=             -0.0000    Z=             -0.1427  Tot=              0.1427
 Quadrupole moment (field-independent basis, Debye-Ang):
   XX=            -29.0420   YY=            -29.0418   ZZ=            -28.4248
   XY=             -0.0001   XZ=             -0.0002   YZ=              0.0001

  Exact polarizability:      52.400      -0.014      52.359      -0.016       0.006      46.101
 Approx polarizability:      57.148      -0.000      57.148      -0.000       0.000      57.181

                      1                      2                      3
                      A                      A                      A
 Frequencies --    215.1784               273.1065               274.7913
 Red. masses --      1.0129                 1.0616                 1.0620
 Frc consts  --      0.0276                 0.0467                 0.0472
 IR Inten    --      0.0000                 0.0156                 0.0172

                      4                      5                      6
                      A                      A                      A
 Frequencies --    370.3493               370.5884               438.3371
 Red. masses --      2.0545                 2.0572                 1.9135
 Frc consts  --      0.1660                 0.1665                 0.2166
 IR Inten    --      0.0393                 0.0382                 0.0833

                      7                      8                      9
                      A                      A                      A
 Frequencies --    819.0314               929.9595               930.6000
 Red. masses --      2.7361                 1.1737                 1.1753
 Frc consts  --      1.0814                 0.5980                 0.5997
 IR Inten    --      0.5804                 1.0181                 1.0098

                     10                     11                     12
                      A                      A                      A
 Frequencies --    958.8852               988.8136               989.3048
 Red. masses --      1.2023                 1.7677                 1.7693
 Frc consts  --      0.6513                 1.0183                 1.0202
 IR Inten    --      0.0009                 0.0830                 0.0857

                     13                     14                     15
                      A                      A                      A
 Frequencies --   1202.2361              1202.4030              1214.8207
 Red. masses --      1.7105                 1.7090                 1.9385
 Frc consts  --      1.4567                 1.4558                 1.6855
 IR Inten    --      1.9879                 2.0001                 0.1637

                     16                     17                     18
                      A                      A                      A
 Frequencies --   1362.8505              1363.2219              1401.1608
 Red. masses --      1.3890                 1.3880                 1.3291
 Frc consts  --      1.5200                 1.5197                 1.5374
 IR Inten    --      1.4096                 1.4073                 9.8578

                     19                     20                     21
                      A                      A                      A
 Frequencies --   1401.5988              1427.8139              1481.9325
 Red. masses --      1.3262                 1.2418                 1.0474
 Frc consts  --      1.5350                 1.4915                 1.3553
 IR Inten    --      9.7842                 4.9130                 0.0002

                     22                     23                     24
                      A                      A                      A
 Frequencies --   1488.9806              1489.1582              1507.8705
 Red. masses --      1.0394                 1.0394                 1.0652
 Frc consts  --      1.3577                 1.3581                 1.4270
 IR Inten    --      0.3583                 0.3818                 4.8678

                     25                     26                     27
                      A                      A                      A
 Frequencies --   1507.9870              1516.3620              3046.1188
 Red. masses --      1.0653                 1.0455                 1.0715
 Frc consts  --      1.4274                 1.4164                 5.8578
 IR Inten    --      4.8577                20.6356                 0.9885

                     28                     29                     30
                      A                      A                      A
 Frequencies --   3047.2511              3047.5804              3054.4454
 Red. masses --      1.0360                 1.0358                 1.0481
 Frc consts  --      5.6679                 5.6684                 5.7611
 IR Inten    --     28.0822                28.1468                21.7894

                     31                     32                     33
                      A                      A                      A
 Frequencies --   3114.6581              3115.0356              3123.5992
 Red. masses --      1.1007                 1.1007                 1.0996
 Frc consts  --      6.2914                 6.2926                 6.3213
 IR Inten    --      8.1350                 8.2951                74.5643

                     34                     35                     36
                      A                      A                      A
 Frequencies --   3127.3192              3130.1008              3130.5830
 Red. masses --      1.1032                 1.1022                 1.1022
 Frc consts  --      6.3567                 6.3624                 6.3642
 IR Inten    --      0.9530                40.8556                41.2821

 - Thermochemistry -
 -------------------
 Temperature   298.150 Kelvin.  Pressure   1.00000 Atm.
 Atom     1 has atomic number  6 and mass  12.00000

 Molecular mass:    58.07825 amu.
 Principal axes and moments of inertia in atomic units:
                           1         2         3
     Eigenvalues --   229.67179 229.68129 395.54150
           X            0.99982  -0.01894   0.00001
           Y            0.01894   0.99982  -0.00001
           Z           -0.00001   0.00001   1.00000
 This molecule is an asymmetric top.
 Rotational symmetry number  1.
 Rotational temperatures (Kelvin)      0.37712     0.37710     0.21898
 Rotational constants (GHZ):           7.85791     7.85759     4.56271
 Zero-point vibrational energy     347300.0 (Joules/Mol)
                                   83.00670 (Kcal/Mol)
 Warning -- explicit consideration of   6 degrees of freedom as
           vibrations may cause significant error
 Vibrational temperatures:    309.59   392.94   395.36   532.85   533.19
          (Kelvin)            630.67  1178.40  1338.00  1338.93  1379.62
                             1422.68  1423.39  1729.75  1729.99  1747.86
                             1960.84  1961.37  2015.96  2016.59  2054.31
                             2132.17  2142.31  2142.57  2169.49  2169.66
                             2181.71  4382.69  4384.31  4384.79  4394.67
                             4481.30  4481.84  4494.16  4499.51  4503.52
                             4504.21

 Zero-point correction=                           0.132280 (Hartree/Particle)
 Thermal correction to Energy=                    0.137916
 Thermal correction to Enthalpy=                  0.138860
 Thermal correction to Gibbs Free Energy=         0.104742
 Sum of electronic and zero-point Energies=           -158.288522
 Sum of electronic and thermal Energies=              -158.282885
 Sum of electronic and thermal Enthalpies=            -158.281941
 Sum of electronic and thermal Free Energies=         -158.316059

                     E (Thermal)             CV                S
                      KCal/Mol        Cal/Mol-Kelvin    Cal/Mol-Kelvin
 Total                   86.544             20.020             71.808
 Electronic               0.000              0.000              0.000
 Translational            0.889              2.981             38.098
 Rotational               0.889              2.981             24.549
 Vibrational             84.766             14.058              9.161
 Vibration     1          0.645              1.818              1.999
 Vibration     2          0.676              1.723              1.576
 Vibration     3          0.677              1.720              1.566
 Vibration     4          0.742              1.533              1.078
 Vibration     5          0.743              1.533              1.077
 Vibration     6          0.799              1.387              0.832

                           ! Non-Optimized Parameters !
 Normal termination of Gaussian 16 at Mon Jun 20 16:09:48 2022.
