 Gaussian 16, Revision C.01,
 Gaussian 16:  AS64L-G16RevC.01  3-Jul-2019

 -------------------------
 # opt freq M062X/def2tzvp
 -------------------------

 converted from /home/svss/projects/Project-Philicity/GS/hydrocarbon/se
 t-1/GS/mol_18_hc/mol_18_hc_cregen_best.xyz
 ----------------------------------------------------------------------
 Symbolic Z-matrix:
 Charge =  0 Multiplicity = 1

 SCF Done:  E(RM062X) =  -338.275852105     A.U. after   11 cycles
 SCF Done:  E(RM062X) =  -338.275997765     A.U. after    9 cycles
 SCF Done:  E(RM062X) =  -338.276002414     A.U. after    7 cycles
 Optimization completed.
    -- Stationary point found.
 Normal termination of Gaussian 16 at Mon Jun 20 17:51:59 2022.

 --------------------------------------------------------------------
 #N Geom=AllCheck Guess=TCheck SCRF=Check GenChk RM062X/def2TZVP Freq
 --------------------------------------------------------------------

 ----------------------------------------------------------------------
 converted from /home/svss/projects/Project-Philicity/GS/hydrocarbon/se
 t-1/GS/mol_18_hc/mol_18_hc_cregen_best.xyz
 ----------------------------------------------------------------------
 Charge =  0 Multiplicity = 1

                         Standard orientation:
 ---------------------------------------------------------------------
 Center     Atomic      Atomic             Coordinates (Angstroms)
 Number     Number       Type             X           Y           Z
 ---------------------------------------------------------------------
      1          9           0        0.746476   -0.997064   -0.128357
      2          6           0       -0.000034   -0.000010    0.339562
      3          9           0        0.490315    1.144951   -0.128338
      4          9           0       -1.236773   -0.147883   -0.128415
      5          1           0        0.000044    0.000021    1.428620
 ---------------------------------------------------------------------

 SCF Done:  E(RM062X) =  -338.276002414     A.U. after    1 cycles

 The electronic state is 1-A.
 Alpha  occ. eigenvalues --  -25.28680 -25.28679 -25.28678 -10.79774  -1.47669
 Alpha  occ. eigenvalues --   -1.38398  -1.38397  -0.83526  -0.71574  -0.69969
 Alpha  occ. eigenvalues --   -0.69968  -0.58122  -0.58121  -0.54247  -0.54246
 Alpha  occ. eigenvalues --   -0.52225  -0.48680
 Alpha virt. eigenvalues --    0.09396   0.14285   0.14285   0.16814   0.29149
 Alpha virt. eigenvalues --    0.30185   0.30186   0.30925   0.46130   0.51965
 Alpha virt. eigenvalues --    0.51965   0.56408   0.56991   0.56992   0.72653

 Mulliken charges:
               1
     1  F   -0.180676
     2  C    0.449646
     3  F   -0.180651
     4  F   -0.180596
     5  H    0.092278
 Sum of Mulliken charges =  -0.00000

 Dipole moment (field-independent basis, Debye):
    X=             -0.0002    Y=              0.0000    Z=              1.6598  Tot=              1.6598
 Quadrupole moment (field-independent basis, Debye-Ang):
   XX=            -22.1990   YY=            -22.1989   ZZ=            -18.5596
   XY=             -0.0000   XZ=              0.0001   YZ=             -0.0000

  Exact polarizability:      16.023       0.001      16.022       0.000      -0.001      14.908
 Approx polarizability:      17.471       0.000      17.470       0.000       0.000      15.765

                      1                      2                      3
                      A                      A                      A
 Frequencies --    516.2055               516.4268               714.7332
 Red. masses --     13.7811                13.7800                13.3404
 Frc consts  --      2.1636                 2.1653                 4.0152
 IR Inten    --      3.1009                 3.1114                16.2702

                      4                      5                      6
                      A                      A                      A
 Frequencies --   1177.2914              1208.2795              1208.7779
 Red. masses --      8.5475                 4.5579                 4.5466
 Frc consts  --      6.9801                 3.9206                 3.9141
 IR Inten    --    107.8663               284.2127               284.0384

                      7                      8                      9
                      A                      A                      A
 Frequencies --   1419.3119              1419.5600              3179.1156
 Red. masses --      1.2901                 1.2909                 1.0899
 Frc consts  --      1.5311                 1.5327                 6.4904
 IR Inten    --     65.7044                65.9447                29.7941

 - Thermochemistry -
 -------------------
 Temperature   298.150 Kelvin.  Pressure   1.00000 Atm.
 Atom     1 has atomic number  9 and mass  18.99840

 Molecular mass:    70.00303 amu.
 Principal axes and moments of inertia in atomic units:
                           1         2         3
     Eigenvalues --   173.34350 173.36538 315.75928
           X            1.00000   0.00000  -0.00004
           Y           -0.00000   1.00000  -0.00001
           Z            0.00004   0.00001   1.00000
 This molecule is an asymmetric top.
 Rotational symmetry number  1.
 Rotational temperatures (Kelvin)      0.49967     0.49960     0.27430
 Rotational constants (GHZ):          10.41136    10.41004     5.71556
 Zero-point vibrational energy      67946.1 (Joules/Mol)
                                   16.23951 (Kcal/Mol)
 Warning -- explicit consideration of   2 degrees of freedom as
           vibrations may cause significant error
 Vibrational temperatures:    742.70   743.02  1028.34  1693.86  1738.44
          (Kelvin)           1739.16  2042.07  2042.43  4574.04

 Zero-point correction=                           0.025879 (Hartree/Particle)
 Thermal correction to Energy=                    0.029308
 Thermal correction to Enthalpy=                  0.030252
 Thermal correction to Gibbs Free Energy=        -0.000206
 Sum of electronic and zero-point Energies=           -338.250123
 Sum of electronic and thermal Energies=              -338.246695
 Sum of electronic and thermal Enthalpies=            -338.245750
 Sum of electronic and thermal Free Energies=         -338.276209

                     E (Thermal)             CV                S
                      KCal/Mol        Cal/Mol-Kelvin    Cal/Mol-Kelvin
 Total                   18.391             10.008             64.105
 Electronic               0.000              0.000              0.000
 Translational            0.889              2.981             38.655
 Rotational               0.889              2.981             23.766
 Vibrational             16.613              4.046              1.685
 Vibration     1          0.871              1.214              0.619
 Vibration     2          0.871              1.214              0.618

 Optimization completed.
    -- Stationary point found.
 Normal termination of Gaussian 16 at Mon Jun 20 17:52:24 2022.
