 Gaussian 16, Revision C.01,
 Gaussian 16:  AS64L-G16RevC.01  3-Jul-2019

 -------------------------
 # opt freq M062X/def2tzvp
 -------------------------

 converted from /home/svss/projects/Project-Philicity/GS/hydrocarbon/se
 t-1/GS/mol_33_hc/mol_33_hc_cregen_best.xyz
 ----------------------------------------------------------------------
 Symbolic Z-matrix:
 Charge =  0 Multiplicity = 1

 SCF Done:  E(RM062X) =  -2574.79040237     A.U. after   12 cycles
 SCF Done:  E(RM062X) =  -2574.79060849     A.U. after   10 cycles
 SCF Done:  E(RM062X) =  -2574.79061494     A.U. after    7 cycles
 Optimization completed.
    -- Stationary point found.
 Normal termination of Gaussian 16 at Mon Jun 20 20:15:19 2022.

 --------------------------------------------------------------------
 #N Geom=AllCheck Guess=TCheck SCRF=Check GenChk RM062X/def2TZVP Freq
 --------------------------------------------------------------------

 ----------------------------------------------------------------------
 converted from /home/svss/projects/Project-Philicity/GS/hydrocarbon/se
 t-1/GS/mol_33_hc/mol_33_hc_cregen_best.xyz
 ----------------------------------------------------------------------
 Charge =  0 Multiplicity = 1

                         Standard orientation:
 ---------------------------------------------------------------------
 Center     Atomic      Atomic             Coordinates (Angstroms)
 Number     Number       Type             X           Y           Z
 ---------------------------------------------------------------------
      1         35           0        0.000000    0.000000    0.039484
      2          1           0        0.000000    0.000000   -1.381928
 ---------------------------------------------------------------------

 SCF Done:  E(RM062X) =  -2574.79061494     A.U. after    1 cycles

 The electronic state is 1-SG.
 Alpha  occ. eigenvalues -- -485.38123 -63.36715 -57.18640 -57.18415 -57.18415
 Alpha  occ. eigenvalues --   -9.03436  -6.85848  -6.84967  -6.84967  -2.89239
 Alpha  occ. eigenvalues --   -2.88879  -2.88879  -2.88079  -2.88079  -0.88003
 Alpha  occ. eigenvalues --   -0.50453  -0.36740  -0.36740
 Alpha virt. eigenvalues --    0.02662   0.19832   0.28490   0.28490   0.28498
 Alpha virt. eigenvalues --    0.30881   0.30881   0.34024   0.34025   0.55508
 Alpha virt. eigenvalues --    0.73962   1.28268   1.30013   1.30013   1.36164

 Mulliken charges:
               1
     1  Br  -0.217840
     2  H    0.217840
 Sum of Mulliken charges =   0.00000

 Dipole moment (field-independent basis, Debye):
    X=              0.0000    Y=              0.0000    Z=             -0.9609  Tot=              0.9609
 Quadrupole moment (field-independent basis, Debye-Ang):
   XX=            -20.0178   YY=            -20.0178   ZZ=            -15.6888
   XY=              0.0000   XZ=              0.0000   YZ=              0.0000

  Exact polarizability:      16.531       0.000      16.531       0.000       0.000      21.977
 Approx polarizability:      20.596      -0.000      20.596      -0.000      -0.000      29.834

                      1
                     SG
 Frequencies --   2678.1545
 Red. masses --      1.0205
 Frc consts  --      4.3127
 IR Inten    --     17.1648

 - Thermochemistry -
 -------------------
 Temperature   298.150 Kelvin.  Pressure   1.00000 Atm.
 Atom     1 has atomic number 35 and mass  78.91834

 Molecular mass:    79.92616 amu.
 Principal axes and moments of inertia in atomic units:
                           1         2         3
     Eigenvalues --     0.00000   7.17979   7.17979
           X            0.00000  -0.00000   1.00000
           Y            0.00000   1.00000   0.00000
           Z            1.00000   0.00000   0.00000
 This molecule is a prolate symmetric top.
 Rotational symmetry number  1.
 Rotational temperature (Kelvin)     12.06357
 Rotational constant (GHZ):         251.363993
 Zero-point vibrational energy      16018.9 (Joules/Mol)
                                    3.82861 (Kcal/Mol)
 Vibrational temperatures:   3853.27
          (Kelvin)

 Zero-point correction=                           0.006101 (Hartree/Particle)
 Thermal correction to Energy=                    0.008462
 Thermal correction to Enthalpy=                  0.009406
 Thermal correction to Gibbs Free Energy=        -0.013121
 Sum of electronic and zero-point Energies=          -2574.784514
 Sum of electronic and thermal Energies=             -2574.782153
 Sum of electronic and thermal Enthalpies=           -2574.781209
 Sum of electronic and thermal Free Energies=        -2574.803736

                     E (Thermal)             CV                S
                      KCal/Mol        Cal/Mol-Kelvin    Cal/Mol-Kelvin
 Total                    5.310              4.969             47.411
 Electronic               0.000              0.000              0.000
 Translational            0.889              2.981             39.050
 Rotational               0.592              1.987              8.361
 Vibrational              3.829              0.001              0.000

 Optimization completed.
    -- Stationary point found.
 Normal termination of Gaussian 16 at Mon Jun 20 20:15:23 2022.
