 Gaussian 16, Revision C.01,
 Gaussian 16:  AS64L-G16RevC.01  3-Jul-2019

 ---------------------------------------------------------
 # opt freq M062X/Def2TZVP scrf=(SMD,solvent=water) nosymm
 ---------------------------------------------------------

 ----
 mol1
 ----
 Symbolic Z-matrix:
 Charge =  0 Multiplicity = 1

 SCF Done:  E(RM062X) =  -310.833819250     A.U. after   11 cycles
 SCF Done:  E(RM062X) =  -310.842118968     A.U. after   11 cycles
 SCF Done:  E(RM062X) =  -310.843092915     A.U. after   10 cycles
 SCF Done:  E(RM062X) =  -310.843210573     A.U. after    9 cycles
 SCF Done:  E(RM062X) =  -310.843212658     A.U. after    8 cycles
 SCF Done:  E(RM062X) =  -310.843212950     A.U. after    7 cycles
 SCF Done:  E(RM062X) =  -310.843213134     A.U. after    7 cycles
 SCF Done:  E(RM062X) =  -310.843213435     A.U. after    7 cycles
 SCF Done:  E(RM062X) =  -310.843213770     A.U. after    7 cycles
 SCF Done:  E(RM062X) =  -310.843214065     A.U. after    7 cycles
 SCF Done:  E(RM062X) =  -310.843214313     A.U. after    7 cycles
 SCF Done:  E(RM062X) =  -310.843214431     A.U. after    6 cycles
 Optimization completed.
    -- Stationary point found.
 Normal termination of Gaussian 16 at Fri Jul 29 15:10:51 2022.

 --------------------------------------------------------------------
 #N Geom=AllCheck Guess=TCheck SCRF=Check GenChk RM062X/def2TZVP Freq
 --------------------------------------------------------------------

 Structure from the checkpoint file:  "mol1.chk"
 ----
 mol1
 ----
 Charge =  0 Multiplicity = 1

                          Input orientation:
 ---------------------------------------------------------------------
 Center     Atomic      Atomic             Coordinates (Angstroms)
 Number     Number       Type             X           Y           Z
 ---------------------------------------------------------------------
      1          6           0       -2.450474    0.167047    0.588329
      2          6           0       -1.628129   -0.198193   -0.647286
      3          6           0       -0.150852   -0.111181   -0.372587
      4          6           0        0.545088   -1.207888    0.133769
      5          6           0        1.897982   -1.116814    0.435260
      6          6           0        2.577918    0.078615    0.235255
      7          6           0        1.894960    1.179175   -0.267746
      8          6           0        0.541789    1.082605   -0.567510
      9          1           0       -2.227554    1.185817    0.910981
     10          1           0       -3.519159    0.100705    0.379898
     11          1           0       -2.221162   -0.507041    1.415823
     12          1           0       -1.879870   -1.212036   -0.964247
     13          1           0       -1.885485    0.475029   -1.467212
     14          1           0        0.018580   -2.143353    0.288790
     15          1           0        2.423027   -1.980735    0.823660
     16          1           0        3.632985    0.150844    0.466678
     17          1           0        2.417347    2.113969   -0.429764
     18          1           0        0.013017    1.943444   -0.962091
 ---------------------------------------------------------------------

 SCF Done:  E(RM062X) =  -310.843214431     A.U. after    1 cycles

 Alpha  occ. eigenvalues --  -10.54281 -10.53661 -10.53649 -10.53426 -10.53367
 Alpha  occ. eigenvalues --  -10.53362 -10.52721 -10.51685  -0.96243  -0.88251
 Alpha  occ. eigenvalues --   -0.83885  -0.81180  -0.71295  -0.68475  -0.65204
 Alpha  occ. eigenvalues --   -0.58134  -0.53305  -0.52279  -0.49214  -0.48426
 Alpha  occ. eigenvalues --   -0.47620  -0.45789  -0.43153  -0.41541  -0.40550
 Alpha  occ. eigenvalues --   -0.38467  -0.38138  -0.30799  -0.29680
 Alpha virt. eigenvalues --    0.02298   0.02541   0.08255   0.10315   0.11299
 Alpha virt. eigenvalues --    0.12198   0.13520   0.14106   0.14871   0.15464
 Alpha virt. eigenvalues --    0.16877   0.18463   0.18484   0.19301   0.21492

 Mulliken charges:
               1
     1  C   -0.451955
     2  C   -0.338196
     3  C    0.095468
     4  C   -0.222262
     5  C   -0.178462
     6  C   -0.206256
     7  C   -0.178492
     8  C   -0.221995
     9  H    0.154243
    10  H    0.156181
    11  H    0.154397
    12  H    0.159943
    13  H    0.159778
    14  H    0.186373
    15  H    0.181329
    16  H    0.182445
    17  H    0.181327
    18  H    0.186134
 Sum of Mulliken charges =  -0.00000

 Dipole moment (field-independent basis, Debye):
    X=             -0.6093    Y=             -0.0268    Z=             -0.0799  Tot=              0.6151
 Quadrupole moment (field-independent basis, Debye-Ang):
   XX=            -44.5270   YY=            -44.6317   ZZ=            -52.3652
   XY=              0.6919   XZ=              2.2689   YZ=             -2.6020

  Exact polarizability:     157.255       3.537     141.358      11.102     -14.683      97.808
 Approx polarizability:     130.441       3.074     123.188       9.942     -12.577      85.913

                      1                      2                      3
                      A                      A                      A
 Frequencies --     30.8343               137.3826               231.4960
 Red. masses --      2.4422                 3.2920                 1.1138
 Frc consts  --      0.0014                 0.0366                 0.0352
 IR Inten    --      0.0287                 1.8178                 0.2002

                      4                      5                      6
                      A                      A                      A
 Frequencies --    311.8482               361.4232               416.1185
 Red. masses --      3.2441                 1.9681                 2.8335
 Frc consts  --      0.1859                 0.1515                 0.2891
 IR Inten    --      0.2096                 0.5983                 0.0199

                      7                      8                      9
                      A                      A                      A
 Frequencies --    503.7312               570.0562               632.5263
 Red. masses --      3.7958                 3.0367                 6.2940
 Frc consts  --      0.5675                 0.5814                 1.4837
 IR Inten    --     11.5417                18.1335                 0.4258

                     10                     11                     12
                      A                      A                      A
 Frequencies --    724.9492               780.2704               791.1671
 Red. masses --      1.6288                 2.7240                 1.1541
 Frc consts  --      0.5044                 0.9771                 0.4256
 IR Inten    --     93.0254                32.9441                 4.4540

                     13                     14                     15
                      A                      A                      A
 Frequencies --    795.8061               878.9102               949.3323
 Red. masses --      2.2916                 1.2491                 1.3881
 Frc consts  --      0.8551                 0.5685                 0.7370
 IR Inten    --     29.4536                 0.0736                 4.7948

                     16                     17                     18
                      A                      A                      A
 Frequencies --    986.8966              1013.3319              1019.3810
 Red. masses --      2.0835                 1.3833                 6.0938
 Frc consts  --      1.1956                 0.8369                 3.7309
 IR Inten    --      6.1139                 0.0071                 0.0251

                     19                     20                     21
                      A                      A                      A
 Frequencies --   1035.1039              1057.8361              1058.9760
 Red. masses --      1.3218                 1.5299                 2.0565
 Frc consts  --      0.8344                 1.0087                 1.3588
 IR Inten    --      0.3325                 6.8065                11.2915

                     22                     23                     24
                      A                      A                      A
 Frequencies --   1090.3860              1117.5077              1164.2524
 Red. masses --      2.0974                 1.3807                 1.1179
 Frc consts  --      1.4693                 1.0159                 0.8928
 IR Inten    --     12.4472                 9.9204                 0.0117

                     25                     26                     27
                      A                      A                      A
 Frequencies --   1189.5747              1237.4808              1264.2765
 Red. masses --      1.1141                 2.2565                 1.4356
 Frc consts  --      0.9289                 2.0359                 1.3520
 IR Inten    --      0.5804                 0.0847                 0.1392

                     28                     29                     30
                      A                      A                      A
 Frequencies --   1326.7024              1352.6899              1354.2481
 Red. masses --      3.4304                 1.6468                 1.2772
 Frc consts  --      3.5575                 1.7754                 1.3801
 IR Inten    --      0.6098                 1.6863                 0.0223

                     31                     32                     33
                      A                      A                      A
 Frequencies --   1395.0749              1468.2127              1479.6107
 Red. masses --      1.2399                 1.0521                 1.0438
 Frc consts  --      1.4218                 1.3363                 1.3464
 IR Inten    --      5.0841                 3.9967                14.7107

                     34                     35                     36
                      A                      A                      A
 Frequencies --   1491.4115              1493.1338              1536.2794
 Red. masses --      2.2701                 1.1006                 2.4299
 Frc consts  --      2.9750                 1.4457                 3.3790
 IR Inten    --      6.1537                 6.6327                29.0636

                     37                     38                     39
                      A                      A                      A
 Frequencies --   1651.9089              1672.2808              3058.2853
 Red. masses --      6.0257                 6.1955                 1.0352
 Frc consts  --      9.6880                10.2081                 5.7047
 IR Inten    --      1.5263                14.2487                33.8452

                     40                     41                     42
                      A                      A                      A
 Frequencies --   3073.3875              3112.1573              3135.5230
 Red. masses --      1.0597                 1.1037                 1.1048
 Frc consts  --      5.8973                 6.2982                 6.3998
 IR Inten    --     39.9831                 2.2871                60.9507

                     43                     44                     45
                      A                      A                      A
 Frequencies --   3137.5160              3191.1476              3191.5319
 Red. masses --      1.1028                 1.0885                 1.0891
 Frc consts  --      6.3964                 6.5307                 6.5362
 IR Inten    --     51.0289                 9.3906                 7.6679

                     46                     47                     48
                      A                      A                      A
 Frequencies --   3207.0212              3214.2186              3226.3199
 Red. masses --      1.0898                 1.0942                 1.0984
 Frc consts  --      6.6036                 6.6606                 6.7364
 IR Inten    --      2.0442                24.2862                11.4992

 - Thermochemistry -
 -------------------
 Temperature   298.150 Kelvin.  Pressure   1.00000 Atm.
 Atom     1 has atomic number  6 and mass  12.00000

 Molecular mass:   106.07825 amu.
 Principal axes and moments of inertia in atomic units:
                           1         2         3
     Eigenvalues --   396.611301216.912011467.40876
           X            0.99970  -0.00358  -0.02433
           Y            0.01059   0.95560   0.29448
           Z            0.02220  -0.29465   0.95535
 This molecule is an asymmetric top.
 Rotational symmetry number  1.
 Rotational temperatures (Kelvin)      0.21838     0.07118     0.05903
 Rotational constants (GHZ):           4.55040     1.48305     1.22988
 Zero-point vibrational energy     413426.5 (Joules/Mol)
                                   98.81131 (Kcal/Mol)
 Warning -- explicit consideration of   8 degrees of freedom as
           vibrations may cause significant error
 Vibrational temperatures:     44.36   197.66   333.07   448.68   520.01
          (Kelvin)            598.70   724.76   820.18   910.06  1043.04
                             1122.64  1138.31  1144.99  1264.56  1365.88
                             1419.92  1457.96  1466.66  1489.28  1521.99
                             1523.63  1568.82  1607.84  1675.10  1711.53
                             1780.46  1819.01  1908.83  1946.22  1948.46
                             2007.20  2112.43  2128.83  2145.81  2148.29
                             2210.36  2376.73  2406.04  4400.19  4421.92
                             4477.70  4511.32  4514.19  4591.35  4591.90
                             4614.19  4624.54  4641.95

 Zero-point correction=                           0.157466 (Hartree/Particle)
 Thermal correction to Energy=                    0.164772
 Thermal correction to Enthalpy=                  0.165716
 Thermal correction to Gibbs Free Energy=         0.125098
 Sum of electronic and zero-point Energies=           -310.685749
 Sum of electronic and thermal Energies=              -310.678443
 Sum of electronic and thermal Enthalpies=            -310.677499
 Sum of electronic and thermal Free Energies=         -310.718116

                     E (Thermal)             CV                S
                      KCal/Mol        Cal/Mol-Kelvin    Cal/Mol-Kelvin
 Total                  103.396             27.738             85.487
 Electronic               0.000              0.000              0.000
 Translational            0.889              2.981             39.894
 Rotational               0.889              2.981             28.051
 Vibrational            101.618             21.776             17.542
 Vibration     1          0.594              1.984              5.775
 Vibration     2          0.614              1.916              2.840
 Vibration     3          0.653              1.793              1.867
 Vibration     4          0.700              1.651              1.353
 Vibration     5          0.736              1.552              1.116
 Vibration     6          0.779              1.435              0.905
 Vibration     7          0.859              1.242              0.649
 Vibration     8          0.926              1.096              0.504

 Optimization completed.
    -- Stationary point found.
 Normal termination of Gaussian 16 at Fri Jul 29 15:17:27 2022.
